# vtk DataFile Version 2.0
PFLOTRAN output
ASCII
DATASET UNSTRUCTURED_GRID
CELL_DATA   14538
SCALARS Liquid_Pressure      float 1
LOOKUP_TABLE default
 2.000000E+06  2.000000E+06  2.000000E+06  2.000000E+06  2.000000E+06  2.000000E+06  2.000000E+06  2.000000E+06  2.000000E+06  2.000000E+06
 2.000000E+06  2.000000E+06  2.000000E+06  2.000000E+06  2.000000E+06  2.000000E+06  2.000000E+06  2.000000E+06  1.973469E+06  1.966130E+06
 1.963229E+06  1.964637E+06  1.963391E+06  1.966001E+06  1.961279E+06  1.959508E+06  1.960123E+06  1.958581E+06  1.959529E+06  1.956554E+06
 1.952508E+06  1.952837E+06  1.946454E+06  1.938160E+06  1.941310E+06  1.933061E+06  1.933232E+06  1.920929E+06  1.922428E+06  1.923179E+06
 1.921024E+06  1.919402E+06  1.913400E+06  1.914883E+06  1.918020E+06  1.912331E+06  1.922570E+06  1.907435E+06  1.906478E+06  1.909169E+06
 1.907511E+06  1.898354E+06  1.889904E+06  1.892629E+06  1.888958E+06  1.884970E+06  1.882849E+06  1.881664E+06  1.878964E+06  1.875963E+06
 1.876799E+06  1.873465E+06  1.872013E+06  1.867205E+06  1.870137E+06  1.860155E+06  1.860256E+06  1.860487E+06  1.861252E+06  1.855802E+06
 1.852165E+06  1.848791E+06  1.837935E+06  1.834810E+06  1.839371E+06  1.843313E+06  1.834348E+06  1.830316E+06  1.831472E+06  1.831220E+06
 1.833511E+06  1.829687E+06  1.832472E+06  1.825842E+06  1.827500E+06  1.814437E+06  1.814027E+06  1.810014E+06  1.808009E+06  1.806621E+06
 1.803731E+06  1.806608E+06  1.800230E+06  1.805093E+06  1.790789E+06  1.794557E+06  1.789704E+06  1.800843E+06  1.796286E+06  1.800428E+06
 1.796603E+06  1.797549E+06  1.789085E+06  1.781932E+06  1.782413E+06  1.768846E+06  1.768278E+06  1.775828E+06  1.778143E+06  1.769051E+06
 1.771029E+06  1.761017E+06  1.758695E+06  1.771172E+06  1.757968E+06  1.759051E+06  1.759687E+06  1.765833E+06  1.756652E+06  1.762885E+06
 1.741808E+06  1.745274E+06  1.741555E+06  1.745809E+06  1.750525E+06  1.744444E+06  1.759430E+06  1.760291E+06  1.734537E+06  1.729228E+06
 1.729344E+06  1.746584E+06  1.724314E+06  1.731311E+06  1.719890E+06  1.737073E+06  1.736161E+06  1.741934E+06  1.720055E+06  1.720580E+06
 1.733672E+06  1.726188E+06  1.720727E+06  1.713451E+06  1.708002E+06  1.703933E+06  1.710054E+06  1.703591E+06  1.727994E+06  1.728524E+06
 1.728047E+06  1.727469E+06  1.712566E+06  1.699565E+06  1.702010E+06  1.703545E+06  1.692314E+06  1.697789E+06  1.709774E+06  1.687444E+06
 1.688045E+06  1.707933E+06  1.690169E+06  1.702875E+06  1.686646E+06  1.679283E+06  1.690172E+06  1.676024E+06  1.691955E+06  1.688692E+06
 1.703328E+06  1.701100E+06  1.678060E+06  1.687997E+06  1.670899E+06  1.668237E+06  1.696627E+06  1.666539E+06  1.695380E+06  1.662441E+06
 1.680257E+06  1.670758E+06  1.659965E+06  1.663173E+06  1.664955E+06  1.659612E+06  1.655246E+06  1.665252E+06  1.653022E+06  1.657777E+06
 1.657853E+06  1.670536E+06  1.682760E+06  1.683304E+06  1.678014E+06  1.648968E+06  1.667301E+06  1.660694E+06  1.658232E+06  1.672354E+06
 1.646525E+06  1.640176E+06  1.643747E+06  1.638250E+06  1.672090E+06  1.675065E+06  1.663382E+06  1.641390E+06  1.637193E+06  1.633510E+06
 1.651172E+06  1.636931E+06  1.632244E+06  1.643082E+06  1.633513E+06  1.656876E+06  1.637293E+06  1.649501E+06  1.636416E+06  1.622677E+06
 1.628839E+06  1.635629E+06  1.618916E+06  1.621689E+06  1.646591E+06  1.618089E+06  1.632882E+06  1.659127E+06  1.618051E+06  1.641148E+06
 1.624119E+06  1.616040E+06  1.658497E+06  1.616796E+06  1.658829E+06  1.659229E+06  1.631589E+06  1.620000E+06  1.631509E+06  1.645605E+06
 1.617247E+06  1.655907E+06  1.656048E+06  1.621443E+06  1.605586E+06  1.607189E+06  1.617541E+06  1.606027E+06  1.612248E+06  1.643242E+06
 1.609361E+06  1.643205E+06  1.624167E+06  1.632010E+06  1.601008E+06  1.630094E+06  1.604276E+06  1.604284E+06  1.603060E+06  1.606769E+06
 1.596246E+06  1.639964E+06  1.597068E+06  1.617493E+06  1.612524E+06  1.598703E+06  1.601491E+06  1.607827E+06  1.598289E+06  1.629836E+06
 1.591939E+06  1.590325E+06  1.617992E+06  1.591036E+06  1.590665E+06  1.591954E+06  1.606541E+06  1.586947E+06  1.586307E+06  1.600052E+06
 1.607797E+06  1.585872E+06  1.600208E+06  1.594955E+06  1.620634E+06  1.590742E+06  1.587977E+06  1.609630E+06  1.578506E+06  1.580550E+06
 1.584189E+06  1.586500E+06  1.592209E+06  1.614694E+06  1.621337E+06  1.630281E+06  1.579422E+06  1.581453E+06  1.578679E+06  1.601145E+06
 1.587779E+06  1.579344E+06  1.576861E+06  1.574278E+06  1.578505E+06  1.605888E+06  1.591709E+06  1.575162E+06  1.620581E+06  1.579190E+06
 1.595606E+06  1.580343E+06  1.570396E+06  1.597915E+06  1.568945E+06  1.566590E+06  1.620251E+06  1.595242E+06  1.577208E+06  1.575631E+06
 1.587697E+06  1.572267E+06  1.582211E+06  1.567986E+06  1.621666E+06  1.579700E+06  1.582522E+06  1.565607E+06  1.562686E+06  1.562693E+06
 1.563764E+06  1.564741E+06  1.568111E+06  1.575038E+06  1.560785E+06  1.584741E+06  1.596844E+06  1.567509E+06  1.615589E+06  1.580487E+06
 1.608780E+06  1.565809E+06  1.562057E+06  1.559663E+06  1.609501E+06  1.556718E+06  1.570325E+06  1.556418E+06  1.555223E+06  1.599112E+06
 1.561192E+06  1.556094E+06  1.552796E+06  1.560098E+06  1.572340E+06  1.613908E+06  1.613369E+06  1.581121E+06  1.557442E+06  1.582903E+06
 1.550754E+06  1.599129E+06  1.557601E+06  1.554422E+06  1.560236E+06  1.554301E+06  1.560856E+06  1.552748E+06  1.565676E+06  1.574315E+06
 1.557555E+06  1.583349E+06  1.548479E+06  1.561759E+06  1.555659E+06  1.586423E+06  1.567181E+06  1.552645E+06  1.546674E+06  1.545682E+06
 1.543483E+06  1.588916E+06  1.580807E+06  1.556358E+06  1.543718E+06  1.557183E+06  1.552216E+06  1.548331E+06  1.550620E+06  1.543004E+06
 1.543433E+06  1.545284E+06  1.550037E+06  1.593758E+06  1.545939E+06  1.557174E+06  1.543066E+06  1.560265E+06  1.574329E+06  1.542271E+06
 1.562838E+06  1.542988E+06  1.541238E+06  1.542632E+06  1.539920E+06  1.544641E+06  1.545554E+06  1.544141E+06  1.579496E+06  1.564982E+06
 1.560925E+06  1.562000E+06  1.536636E+06  1.549067E+06  1.534815E+06  1.547474E+06  1.536157E+06  1.540782E+06  1.534990E+06  1.535877E+06
 1.552866E+06  1.533776E+06  1.564835E+06  1.544181E+06  1.542757E+06  1.537987E+06  1.535550E+06  1.569214E+06  1.532478E+06  1.550196E+06
 1.547497E+06  1.542391E+06  1.534843E+06  1.535708E+06  1.530654E+06  1.543557E+06  1.535334E+06  1.531121E+06  1.529949E+06  1.537565E+06
 1.561176E+06  1.537308E+06  1.535831E+06  1.537375E+06  1.534880E+06  1.536660E+06  1.548831E+06  1.539371E+06  1.556557E+06  1.526672E+06
 1.526516E+06  1.574849E+06  1.525594E+06  1.529605E+06  1.528989E+06  1.528447E+06  1.577658E+06  1.545783E+06  1.526079E+06  1.525242E+06
 1.525455E+06  1.567193E+06  1.551244E+06  1.524308E+06  1.565970E+06  1.530917E+06  1.542779E+06  1.533978E+06  1.529737E+06  1.525159E+06
 1.541082E+06  1.525335E+06  1.525337E+06  1.523968E+06  1.545003E+06  1.537014E+06  1.533621E+06  1.546653E+06  1.530622E+06  1.520398E+06
 1.526847E+06  1.522363E+06  1.528277E+06  1.579854E+06  1.536501E+06  1.524462E+06  1.521983E+06  1.522538E+06  1.574244E+06  1.524407E+06
 1.525443E+06  1.555639E+06  1.522807E+06  1.549300E+06  1.527044E+06  1.584535E+06  1.525807E+06  1.529779E+06  1.523305E+06  1.518764E+06
 1.532269E+06  1.554988E+06  1.537005E+06  1.522224E+06  1.535397E+06  1.522944E+06  1.558599E+06  1.588628E+06  1.589195E+06  1.516124E+06
 1.584078E+06  1.517156E+06  1.528751E+06  1.528642E+06  1.539936E+06  1.515534E+06  1.514964E+06  1.515502E+06  1.524017E+06  1.514438E+06
 1.514516E+06  1.578103E+06  1.585505E+06  1.524777E+06  1.516765E+06  1.523915E+06  1.514496E+06  1.513960E+06  1.522756E+06  1.563845E+06
 1.521848E+06  1.512647E+06  1.532547E+06  1.513231E+06  1.520473E+06  1.524046E+06  1.518596E+06  1.519592E+06  1.518883E+06  1.511794E+06
 1.514822E+06  1.585718E+06  1.585560E+06  1.545418E+06  1.545009E+06  1.526840E+06  1.538746E+06  1.514518E+06  1.518445E+06  1.514678E+06
 1.512393E+06  1.539453E+06  1.531555E+06  1.526751E+06  1.531856E+06  1.522989E+06  1.516635E+06  1.515100E+06  1.515599E+06  1.518384E+06
 1.511917E+06  1.510406E+06  1.534485E+06  1.517666E+06  1.511644E+06  1.515762E+06  1.512656E+06  1.511408E+06  1.512896E+06  1.524860E+06
 1.510099E+06  1.519133E+06  1.507645E+06  1.509340E+06  1.514666E+06  1.554448E+06  1.520245E+06  1.516187E+06  1.506940E+06  1.520357E+06
 1.508754E+06  1.506996E+06  1.519455E+06  1.510326E+06  1.506259E+06  1.506278E+06  1.522054E+06  1.512886E+06  1.566593E+06  1.504687E+06
 1.509602E+06  1.546390E+06  1.555205E+06  1.505591E+06  1.512291E+06  1.507030E+06  1.540740E+06  1.576370E+06  1.503672E+06  1.509205E+06
 1.503194E+06  1.503180E+06  1.509644E+06  1.502949E+06  1.547291E+06  1.559529E+06  1.509792E+06  1.520177E+06  1.507389E+06  1.514459E+06
 1.506821E+06  1.502302E+06  1.513092E+06  1.501973E+06  1.505697E+06  1.503306E+06  1.502413E+06  1.540510E+06  1.516593E+06  1.511447E+06
 1.512678E+06  1.533168E+06  1.504951E+06  1.531763E+06  1.527233E+06  1.508493E+06  1.523531E+06  1.518876E+06  1.506097E+06  1.509876E+06
 1.501023E+06  1.522249E+06  1.509779E+06  1.505079E+06  1.502890E+06  1.504573E+06  1.506453E+06  1.500018E+06  1.502566E+06  1.500934E+06
 1.505749E+06  1.507990E+06  1.500428E+06  1.499478E+06  1.500971E+06  1.501714E+06  1.502056E+06  1.511713E+06  1.501399E+06  1.524647E+06
 1.505573E+06  1.506449E+06  1.498008E+06  1.508326E+06  1.498343E+06  1.498929E+06  1.512901E+06  1.526788E+06  1.505398E+06  1.502013E+06
 1.516870E+06  1.499569E+06  1.531312E+06  1.496350E+06  1.498250E+06  1.511321E+06  1.509058E+06  1.531528E+06  1.520030E+06  1.509314E+06
 1.497095E+06  1.561914E+06  1.515470E+06  1.507973E+06  1.499827E+06  1.503136E+06  1.499975E+06  1.499489E+06  1.501248E+06  1.506454E+06
 1.511237E+06  1.495842E+06  1.500649E+06  1.498684E+06  1.496283E+06  1.504824E+06  1.499688E+06  1.502578E+06  1.493564E+06  1.498230E+06
 1.493704E+06  1.493362E+06  1.536097E+06  1.496026E+06  1.494961E+06  1.499861E+06  1.502287E+06  1.541797E+06  1.506268E+06  1.498126E+06
 1.493735E+06  1.493237E+06  1.495424E+06  1.499369E+06  1.505573E+06  1.496649E+06  1.494975E+06  1.495448E+06  1.546558E+06  1.498972E+06
 1.490416E+06  1.495088E+06  1.521985E+06  1.488591E+06  1.504379E+06  1.499827E+06  1.529140E+06  1.489132E+06  1.492578E+06  1.490332E+06
 1.508613E+06  1.489054E+06  1.489545E+06  1.495489E+06  1.502264E+06  1.509766E+06  1.488449E+06  1.505692E+06  1.501151E+06  1.528278E+06
 1.488197E+06  1.488307E+06  1.493830E+06  1.490179E+06  1.487904E+06  1.490206E+06  1.540601E+06  1.514358E+06  1.488286E+06  1.488996E+06
 1.489498E+06  1.501413E+06  1.490986E+06  1.508082E+06  1.487399E+06  1.510869E+06  1.498683E+06  1.502508E+06  1.487548E+06  1.514732E+06
 1.490367E+06  1.488596E+06  1.495929E+06  1.497571E+06  1.503801E+06  1.496472E+06  1.488560E+06  1.488115E+06  1.490725E+06  1.495820E+06
 1.492453E+06  1.492917E+06  1.497308E+06  1.548851E+06  1.492945E+06  1.504155E+06  1.492496E+06  1.494411E+06  1.485930E+06  1.531594E+06
 1.493218E+06  1.491015E+06  1.493742E+06  1.514593E+06  1.485290E+06  1.487844E+06  1.493018E+06  1.486002E+06  1.484805E+06  1.490077E+06
 1.509400E+06  1.487771E+06  1.491475E+06  1.484838E+06  1.484858E+06  1.497259E+06  1.490403E+06  1.488901E+06  1.520282E+06  1.486500E+06
 1.488807E+06  1.501842E+06  1.483798E+06  1.486784E+06  1.499629E+06  1.486943E+06  1.487226E+06  1.505368E+06  1.487696E+06  1.517714E+06
 1.483000E+06  1.483105E+06  1.483338E+06  1.482708E+06  1.482492E+06  1.483052E+06  1.496658E+06  1.494236E+06  1.495414E+06  1.486220E+06
 1.555271E+06  1.489350E+06  1.492121E+06  1.491358E+06  1.495172E+06  1.496100E+06  1.487951E+06  1.482410E+06  1.489516E+06  1.493184E+06
 1.483504E+06  1.483182E+06  1.481410E+06  1.487098E+06  1.491475E+06  1.483394E+06  1.482236E+06  1.480613E+06  1.486097E+06  1.483311E+06
 1.528688E+06  1.482547E+06  1.541125E+06  1.488593E+06  1.498642E+06  1.482013E+06  1.491477E+06  1.510661E+06  1.479795E+06  1.502418E+06
 1.486616E+06  1.481117E+06  1.479789E+06  1.483314E+06  1.486244E+06  1.505020E+06  1.488492E+06  1.484657E+06  1.498865E+06  1.490656E+06
 1.499594E+06  1.484609E+06  1.488206E+06  1.486834E+06  1.489473E+06  1.481502E+06  1.479506E+06  1.483389E+06  1.483539E+06  1.510678E+06
 1.533638E+06  1.479962E+06  1.488521E+06  1.481235E+06  1.479130E+06  1.479044E+06  1.486427E+06  1.479933E+06  1.495015E+06  1.497114E+06
 1.478860E+06  1.479267E+06  1.479863E+06  1.485404E+06  1.504362E+06  1.478290E+06  1.545640E+06  1.478496E+06  1.481110E+06  1.479006E+06
 1.493635E+06  1.477978E+06  1.479577E+06  1.477714E+06  1.479963E+06  1.519500E+06  1.478085E+06  1.480650E+06  1.477354E+06  1.480188E+06
 1.489332E+06  1.477444E+06  1.490499E+06  1.477382E+06  1.479027E+06  1.481192E+06  1.481400E+06  1.481526E+06  1.482612E+06  1.479334E+06
 1.478683E+06  1.477068E+06  1.484346E+06  1.476580E+06  1.480965E+06  1.476624E+06  1.496645E+06  1.476457E+06  1.478940E+06  1.478397E+06
 1.490477E+06  1.478222E+06  1.555432E+06  1.498461E+06  1.492359E+06  1.476939E+06  1.487880E+06  1.484400E+06  1.487230E+06  1.489889E+06
 1.481398E+06  1.503777E+06  1.475825E+06  1.488146E+06  1.483624E+06  1.475255E+06  1.475150E+06  1.492154E+06  1.476188E+06  1.474681E+06
 1.474835E+06  1.527429E+06  1.485282E+06  1.485784E+06  1.479879E+06  1.481723E+06  1.483783E+06  1.480219E+06  1.476780E+06  1.483621E+06
 1.480864E+06  1.473902E+06  1.516434E+06  1.494047E+06  1.488826E+06  1.509409E+06  1.478882E+06  1.476538E+06  1.478234E+06  1.480088E+06
 1.481598E+06  1.477563E+06  1.483736E+06  1.477702E+06  1.552226E+06  1.475476E+06  1.474339E+06  1.481461E+06  1.473588E+06  1.484162E+06
 1.500832E+06  1.556498E+06  1.506790E+06  1.545022E+06  1.518642E+06  1.541922E+06  1.527896E+06  1.524060E+06  1.497367E+06  1.530753E+06
 1.555587E+06  1.468388E+06  1.510779E+06  1.502332E+06  1.468714E+06  1.468103E+06  1.470092E+06  1.476026E+06  1.468310E+06  1.479594E+06
 1.467150E+06  1.470955E+06  1.467047E+06  1.471110E+06  1.485455E+06  1.467508E+06  1.474732E+06  1.468394E+06  1.468406E+06  1.470487E+06
 1.468083E+06  1.514071E+06  1.474408E+06  1.475593E+06  1.478787E+06  1.482502E+06  1.468415E+06  1.471465E+06  1.483810E+06  1.467410E+06
 1.496092E+06  1.488199E+06  1.470443E+06  1.471684E+06  1.466413E+06  1.470680E+06  1.481025E+06  1.476678E+06  1.471744E+06  1.493041E+06
 1.486603E+06  1.490104E+06  1.479911E+06  1.466706E+06  1.466499E+06  1.465933E+06  1.477552E+06  1.470651E+06  1.466415E+06  1.467511E+06
 1.466757E+06  1.471491E+06  1.465659E+06  1.472916E+06  1.466224E+06  1.487734E+06  1.472046E+06  1.468171E+06  1.468504E+06  1.553002E+06
 1.469132E+06  1.471661E+06  1.465375E+06  1.471057E+06  1.478312E+06  1.491571E+06  1.467536E+06  1.474034E+06  1.470164E+06  1.475072E+06
 1.482515E+06  1.466497E+06  1.466370E+06  1.475916E+06  1.465012E+06  1.465709E+06  1.465946E+06  1.466469E+06  1.464897E+06  1.485377E+06
 1.467100E+06  1.472296E+06  1.468181E+06  1.467434E+06  1.479445E+06  1.548026E+06  1.464356E+06  1.465007E+06  1.474271E+06  1.474736E+06
 1.483510E+06  1.464933E+06  1.469059E+06  1.481443E+06  1.464282E+06  1.466237E+06  1.516212E+06  1.464098E+06  1.468522E+06  1.464365E+06
 1.502917E+06  1.497888E+06  1.464527E+06  1.467809E+06  1.468469E+06  1.478187E+06  1.467174E+06  1.480242E+06  1.483202E+06  1.472427E+06
 1.464932E+06  1.470038E+06  1.471112E+06  1.476683E+06  1.464091E+06  1.470468E+06  1.468841E+06  1.464835E+06  1.472943E+06  1.464393E+06
 1.463884E+06  1.463232E+06  1.463349E+06  1.479413E+06  1.497146E+06  1.551821E+06  1.551149E+06  1.471487E+06  1.467084E+06  1.464697E+06
 1.465486E+06  1.471254E+06  1.464696E+06  1.473013E+06  1.463712E+06  1.467785E+06  1.475274E+06  1.487214E+06  1.467060E+06  1.464051E+06
 1.462917E+06  1.487862E+06  1.492746E+06  1.463902E+06  1.470293E+06  1.464668E+06  1.472607E+06  1.471760E+06  1.469404E+06  1.523992E+06
 1.462932E+06  1.468168E+06  1.511774E+06  1.492964E+06  1.463750E+06  1.477908E+06  1.463954E+06  1.468226E+06  1.475318E+06  1.517461E+06
 1.476176E+06  1.467202E+06  1.473859E+06  1.483582E+06  1.470647E+06  1.463040E+06  1.462786E+06  1.473241E+06  1.461809E+06  1.488724E+06
 1.502728E+06  1.465640E+06  1.472783E+06  1.528049E+06  1.464045E+06  1.462198E+06  1.463270E+06  1.468193E+06  1.461595E+06  1.461395E+06
 1.464642E+06  1.461696E+06  1.484794E+06  1.473584E+06  1.479637E+06  1.461164E+06  1.476121E+06  1.488869E+06  1.461202E+06  1.463747E+06
 1.460936E+06  1.461373E+06  1.465239E+06  1.462110E+06  1.465397E+06  1.479990E+06  1.469139E+06  1.460517E+06  1.464602E+06  1.471171E+06
 1.470055E+06  1.462822E+06  1.480351E+06  1.470909E+06  1.460176E+06  1.461738E+06  1.464917E+06  1.463743E+06  1.465824E+06  1.526626E+06
 1.482234E+06  1.462761E+06  1.459775E+06  1.464155E+06  1.459854E+06  1.468258E+06  1.483738E+06  1.463383E+06  1.460577E+06  1.460206E+06
 1.467069E+06  1.461721E+06  1.459544E+06  1.477031E+06  1.459802E+06  1.460271E+06  1.465892E+06  1.460745E+06  1.461760E+06  1.459270E+06
 1.459443E+06  1.468691E+06  1.462413E+06  1.464878E+06  1.501236E+06  1.458598E+06  1.507159E+06  1.529211E+06  1.463367E+06  1.491096E+06
 1.475983E+06  1.512799E+06  1.458467E+06  1.457795E+06  1.457903E+06  1.458300E+06  1.493839E+06  1.465295E+06  1.461470E+06  1.472501E+06
 1.483169E+06  1.457650E+06  1.467138E+06  1.463585E+06  1.465672E+06  1.486598E+06  1.461948E+06  1.513235E+06  1.507142E+06  1.532701E+06
 1.478730E+06  1.494951E+06  1.469256E+06  1.473128E+06  1.462340E+06  1.472075E+06  1.458102E+06  1.461903E+06  1.463509E+06  1.455868E+06
 1.455724E+06  1.459652E+06  1.458375E+06  1.470207E+06  1.475038E+06  1.457250E+06  1.455548E+06  1.469810E+06  1.460304E+06  1.486370E+06
 1.455083E+06  1.466043E+06  1.454692E+06  1.456761E+06  1.454758E+06  1.461919E+06  1.454477E+06  1.460373E+06  1.525767E+06  1.455933E+06
 1.454287E+06  1.467057E+06  1.456023E+06  1.454944E+06  1.499293E+06  1.459102E+06  1.474917E+06  1.472379E+06  1.457236E+06  1.453817E+06
 1.462468E+06  1.454711E+06  1.454094E+06  1.455033E+06  1.457111E+06  1.463139E+06  1.456083E+06  1.466442E+06  1.467036E+06  1.453138E+06
 1.458706E+06  1.488742E+06  1.454153E+06  1.481489E+06  1.453521E+06  1.455616E+06  1.452843E+06  1.460349E+06  1.475705E+06  1.451542E+06
 1.478303E+06  1.458301E+06  1.473598E+06  1.501148E+06  1.456194E+06  1.455332E+06  1.456571E+06  1.462520E+06  1.494945E+06  1.458620E+06
 1.463831E+06  1.509300E+06  1.477234E+06  1.480782E+06  1.453536E+06  1.531283E+06  1.488998E+06  1.459973E+06  1.450263E+06  1.451999E+06
 1.483926E+06  1.450382E+06  1.451738E+06  1.460561E+06  1.515770E+06  1.452446E+06  1.468112E+06  1.450476E+06  1.449632E+06  1.449110E+06
 1.453597E+06  1.449743E+06  1.449420E+06  1.469209E+06  1.454982E+06  1.454700E+06  1.448988E+06  1.456483E+06  1.472148E+06  1.448158E+06
 1.455225E+06  1.448616E+06  1.448303E+06  1.469101E+06  1.449868E+06  1.522866E+06  1.457500E+06  1.450793E+06  1.465025E+06  1.489658E+06
 1.460502E+06  1.455971E+06  1.449780E+06  1.463383E+06  1.448711E+06  1.447822E+06  1.448051E+06  1.449542E+06  1.447011E+06  1.453606E+06
 1.464821E+06  1.450754E+06  1.499122E+06  1.447066E+06  1.460886E+06  1.456075E+06  1.449886E+06  1.502948E+06  1.453524E+06  1.530144E+06
 1.446138E+06  1.456962E+06  1.462145E+06  1.475177E+06  1.454396E+06  1.479170E+06  1.447022E+06  1.494735E+06  1.507943E+06  1.451097E+06
 1.450603E+06  1.448518E+06  1.446093E+06  1.448849E+06  1.470924E+06  1.490754E+06  1.459535E+06  1.467643E+06  1.481088E+06  1.456520E+06
 1.445073E+06  1.455776E+06  1.469897E+06  1.445997E+06  1.454352E+06  1.442870E+06  1.443284E+06  1.527061E+06  1.484036E+06  1.474883E+06
 1.513676E+06  1.472700E+06  1.442617E+06  1.461810E+06  1.448342E+06  1.478294E+06  1.527899E+06  1.527406E+06  1.446730E+06  1.441472E+06
 1.441293E+06  1.442331E+06  1.448357E+06  1.444667E+06  1.445985E+06  1.440949E+06  1.441060E+06  1.461593E+06  1.501339E+06  1.462418E+06
 1.527614E+06  1.528247E+06  1.464858E+06  1.448910E+06  1.441519E+06  1.442802E+06  1.440812E+06  1.451058E+06  1.446944E+06  1.449879E+06
 1.441357E+06  1.518494E+06  1.444884E+06  1.439569E+06  1.441321E+06  1.439979E+06  1.439168E+06  1.447005E+06  1.442035E+06  1.453550E+06
 1.438244E+06  1.457298E+06  1.487682E+06  1.441021E+06  1.447687E+06  1.468355E+06  1.450225E+06  1.442078E+06  1.448830E+06  1.500760E+06
 1.453837E+06  1.437861E+06  1.479150E+06  1.449869E+06  1.487084E+06  1.490679E+06  1.451671E+06  1.441726E+06  1.512332E+06  1.439643E+06
 1.503231E+06  1.437340E+06  1.454924E+06  1.474070E+06  1.470167E+06  1.459143E+06  1.443152E+06  1.437519E+06  1.478066E+06  1.461175E+06
 1.434435E+06  1.434210E+06  1.440143E+06  1.435059E+06  1.436196E+06  1.434402E+06  1.462440E+06  1.438134E+06  1.456554E+06  1.446630E+06
 1.432377E+06  1.437041E+06  1.491290E+06  1.467005E+06  1.453286E+06  1.431929E+06  1.431855E+06  1.434454E+06  1.431205E+06  1.434844E+06
 1.441144E+06  1.430811E+06  1.460643E+06  1.430695E+06  1.434127E+06  1.434593E+06  1.437795E+06  1.432297E+06  1.441475E+06  1.443455E+06
 1.429953E+06  1.438096E+06  1.445284E+06  1.431309E+06  1.475978E+06  1.510524E+06  1.436664E+06  1.487480E+06  1.446818E+06  1.439894E+06
 1.443759E+06  1.447121E+06  1.474773E+06  1.428966E+06  1.460826E+06  1.451323E+06  1.466241E+06  1.432329E+06  1.425260E+06  1.497328E+06
 1.448028E+06  1.428409E+06  1.464352E+06  1.451576E+06  1.425921E+06  1.424567E+06  1.488798E+06  1.474801E+06  1.456415E+06  1.426097E+06
 1.428328E+06  1.422721E+06  1.437069E+06  1.422785E+06  1.428912E+06  1.423640E+06  1.434416E+06  1.422403E+06  1.426425E+06  1.431581E+06
 1.495492E+06  1.450515E+06  1.442926E+06  1.424469E+06  1.503509E+06  1.474841E+06  1.420271E+06  1.420846E+06  1.438499E+06  1.428316E+06
 1.483378E+06  1.428388E+06  1.430841E+06  1.464732E+06  1.505079E+06  1.420074E+06  1.454042E+06  1.432040E+06  1.505651E+06  1.435336E+06
 1.438851E+06  1.418946E+06  1.441522E+06  1.452956E+06  1.473111E+06  1.460667E+06  1.413895E+06  1.419418E+06  1.420645E+06  1.420090E+06
 1.414812E+06  1.421696E+06  1.491934E+06  1.414477E+06  1.443359E+06  1.424455E+06  1.438875E+06  1.503162E+06  1.500435E+06  1.412679E+06
 1.416524E+06  1.421546E+06  1.426351E+06  1.453993E+06  1.411268E+06  1.418835E+06  1.410103E+06  1.412162E+06  1.428376E+06  1.431706E+06
 1.408986E+06  1.458430E+06  1.440592E+06  1.471563E+06  1.462607E+06  1.410583E+06  1.418600E+06  1.445464E+06  1.410385E+06  1.441849E+06
 1.472194E+06  1.420391E+06  1.415157E+06  1.488667E+06  1.486945E+06  1.426215E+06  1.429900E+06  1.422729E+06  1.406514E+06  1.407568E+06
 1.474406E+06  1.410799E+06  1.404782E+06  1.447137E+06  1.431722E+06  1.457003E+06  1.401948E+06  1.407429E+06  1.402310E+06  1.400840E+06
 1.412886E+06  1.441639E+06  1.414213E+06  1.400021E+06  1.489440E+06  1.416438E+06  1.403653E+06  1.401000E+06  1.406389E+06  1.423969E+06
 1.473998E+06  1.420032E+06  1.430019E+06  1.404788E+06  1.456540E+06  1.445272E+06  1.428466E+06  1.454429E+06  1.441636E+06  1.397537E+06
 1.405106E+06  1.407983E+06  1.398399E+06  1.396397E+06  1.471909E+06  1.431260E+06  1.413489E+06  1.394177E+06  1.393146E+06  1.482206E+06
 1.394602E+06  1.409621E+06  1.419726E+06  1.397893E+06  1.391683E+06  1.485095E+06  1.484258E+06  1.486547E+06  1.487672E+06  1.391033E+06
 1.458600E+06  1.399735E+06  1.441113E+06  1.456614E+06  1.431921E+06  1.416098E+06  1.426991E+06  1.388956E+06  1.395017E+06  1.399443E+06
 1.392219E+06  1.408111E+06  1.389284E+06  1.401018E+06  1.417015E+06  1.416829E+06  1.470548E+06  1.391047E+06  1.395946E+06  1.387432E+06
 1.384428E+06  1.405107E+06  1.436269E+06  1.385360E+06  1.384251E+06  1.383214E+06  1.441134E+06  1.443973E+06  1.382343E+06  1.470456E+06
 1.383320E+06  1.397755E+06  1.424900E+06  1.417148E+06  1.457425E+06  1.384352E+06  1.405323E+06  1.388854E+06  1.403892E+06  1.473018E+06
 1.378197E+06  1.413866E+06  1.383910E+06  1.376976E+06  1.427569E+06  1.419957E+06  1.458459E+06  1.449617E+06  1.384676E+06  1.375404E+06
 1.388353E+06  1.388551E+06  1.379697E+06  1.439288E+06  1.404587E+06  1.377967E+06  1.393740E+06  1.374042E+06  1.403807E+06  1.376137E+06
 1.390866E+06  1.373540E+06  1.375730E+06  1.374043E+06  1.378622E+06  1.441565E+06  1.393663E+06  1.422001E+06  1.431338E+06  1.371471E+06
 1.410120E+06  1.384117E+06  1.408580E+06  1.379387E+06  1.469072E+06  1.415229E+06  1.369109E+06  1.392865E+06  1.400983E+06  1.423905E+06
 1.367403E+06  1.375417E+06  1.379228E+06  1.372795E+06  1.453443E+06  1.370656E+06  1.400230E+06  1.394436E+06  1.388440E+06  1.368555E+06
 1.365350E+06  1.370759E+06  1.364920E+06  1.379559E+06  1.409384E+06  1.364318E+06  1.371531E+06  1.383316E+06  1.374963E+06  1.365363E+06
 1.363416E+06  1.469692E+06  1.428750E+06  1.445087E+06  1.380192E+06  1.371653E+06  1.364803E+06  1.390872E+06  1.360965E+06  1.365313E+06
 1.441974E+06  1.453511E+06  1.427918E+06  1.362204E+06  1.363969E+06  1.366444E+06  1.365531E+06  1.456695E+06  1.412759E+06  1.396333E+06
 1.402407E+06  1.359547E+06  1.382229E+06  1.373163E+06  1.395821E+06  1.471841E+06  1.469474E+06  1.375427E+06  1.458525E+06  1.406309E+06
 1.397568E+06  1.432481E+06  1.367419E+06  1.368242E+06  1.383617E+06  1.356577E+06  1.362289E+06  1.381969E+06  1.388164E+06  1.369942E+06
 1.414889E+06  1.359865E+06  1.357522E+06  1.430197E+06  1.356489E+06  1.362624E+06  1.407417E+06  1.354826E+06  1.354687E+06  1.385595E+06
 1.353554E+06  1.353667E+06  1.353439E+06  1.458633E+06  1.373443E+06  1.374734E+06  1.356267E+06  1.358095E+06  1.411187E+06  1.365262E+06
 1.361399E+06  1.400474E+06  1.353631E+06  1.367820E+06  1.362540E+06  1.393733E+06  1.351863E+06  1.351285E+06  1.357804E+06  1.378786E+06
 1.352702E+06  1.354521E+06  1.360605E+06  1.393995E+06  1.365605E+06  1.352101E+06  1.374510E+06  1.354962E+06  1.384453E+06  1.352928E+06
 1.415818E+06  1.350062E+06  1.402479E+06  1.370837E+06  1.420307E+06  1.387039E+06  1.467722E+06  1.350981E+06  1.368146E+06  1.361966E+06
 1.372269E+06  1.359259E+06  1.411107E+06  1.364725E+06  1.353611E+06  1.394217E+06  1.375046E+06  1.355993E+06  1.430874E+06  1.347193E+06
 1.348217E+06  1.380622E+06  1.365083E+06  1.359513E+06  1.346684E+06  1.441134E+06  1.439928E+06  1.376886E+06  1.384075E+06  1.350533E+06
 1.396601E+06  1.404158E+06  1.351613E+06  1.344784E+06  1.361079E+06  1.344931E+06  1.345048E+06  1.343727E+06  1.345598E+06  1.427468E+06
 1.343190E+06  1.344133E+06  1.348947E+06  1.352967E+06  1.351011E+06  1.373029E+06  1.384776E+06  1.357881E+06  1.354717E+06  1.342975E+06
 1.352281E+06  1.346162E+06  1.343487E+06  1.397622E+06  1.389728E+06  1.352752E+06  1.416744E+06  1.363202E+06  1.361201E+06  1.344093E+06
 1.346020E+06  1.381109E+06  1.375209E+06  1.364898E+06  1.346452E+06  1.341134E+06  1.369701E+06  1.383694E+06  1.342356E+06  1.343041E+06
 1.343241E+06  1.365656E+06  1.346438E+06  1.444473E+06  1.360379E+06  1.351584E+06  1.353349E+06  1.357999E+06  1.352396E+06  1.340943E+06
 1.391711E+06  1.354207E+06  1.369196E+06  1.364494E+06  1.404589E+06  1.418415E+06  1.373834E+06  1.338300E+06  1.383260E+06  1.341940E+06
 1.408503E+06  1.353547E+06  1.338425E+06  1.373290E+06  1.337659E+06  1.454259E+06  1.336894E+06  1.395100E+06  1.338859E+06  1.359899E+06
 1.337093E+06  1.343468E+06  1.345731E+06  1.353388E+06  1.344439E+06  1.341657E+06  1.338027E+06  1.335597E+06  1.335513E+06  1.375369E+06
 1.394259E+06  1.398563E+06  1.366931E+06  1.345273E+06  1.339796E+06  1.335126E+06  1.383425E+06  1.373287E+06  1.340538E+06  1.361250E+06
 1.354201E+06  1.337126E+06  1.335057E+06  1.442477E+06  1.356160E+06  1.333851E+06  1.345297E+06  1.337620E+06  1.347708E+06  1.362582E+06
 1.333473E+06  1.334345E+06  1.341977E+06  1.361430E+06  1.333023E+06  1.334640E+06  1.340256E+06  1.344520E+06  1.342879E+06  1.373720E+06
 1.364204E+06  1.355984E+06  1.422758E+06  1.353141E+06  1.350153E+06  1.356997E+06  1.337186E+06  1.380430E+06  1.349634E+06  1.453039E+06
 1.333026E+06  1.335684E+06  1.374392E+06  1.332151E+06  1.332584E+06  1.334569E+06  1.333081E+06  1.330852E+06  1.343697E+06  1.336448E+06
 1.333059E+06  1.331504E+06  1.345140E+06  1.374284E+06  1.332889E+06  1.381673E+06  1.339199E+06  1.342777E+06  1.349643E+06  1.351191E+06
 1.336460E+06  1.331908E+06  1.413944E+06  1.404203E+06  1.383257E+06  1.365685E+06  1.332769E+06  1.429584E+06  1.344883E+06  1.330662E+06
 1.328526E+06  1.390331E+06  1.331203E+06  1.361570E+06  1.331483E+06  1.338655E+06  1.364670E+06  1.353701E+06  1.328544E+06  1.332923E+06
 1.422372E+06  1.328244E+06  1.361388E+06  1.332478E+06  1.443994E+06  1.342825E+06  1.333664E+06  1.354543E+06  1.335228E+06  1.343902E+06
 1.334012E+06  1.347551E+06  1.329070E+06  1.345867E+06  1.382424E+06  1.350923E+06  1.329661E+06  1.332568E+06  1.335297E+06  1.404649E+06
 1.392788E+06  1.343697E+06  1.356154E+06  1.365095E+06  1.351562E+06  1.395139E+06  1.335743E+06  1.364030E+06  1.347058E+06  1.336810E+06
 1.325671E+06  1.343132E+06  1.325499E+06  1.325644E+06  1.353052E+06  1.384132E+06  1.338611E+06  1.324872E+06  1.354681E+06  1.328838E+06
 1.348823E+06  1.347506E+06  1.347161E+06  1.324848E+06  1.328716E+06  1.325479E+06  1.325735E+06  1.325142E+06  1.325660E+06  1.365798E+06
 1.369265E+06  1.355908E+06  1.351238E+06  1.325879E+06  1.335306E+06  1.342205E+06  1.333544E+06  1.337304E+06  1.364188E+06  1.325321E+06
 1.426859E+06  1.331181E+06  1.325697E+06  1.323721E+06  1.353674E+06  1.323224E+06  1.322947E+06  1.324778E+06  1.331539E+06  1.324906E+06
 1.328100E+06  1.335035E+06  1.373191E+06  1.337387E+06  1.338814E+06  1.328440E+06  1.325117E+06  1.327124E+06  1.326097E+06  1.355587E+06
 1.327544E+06  1.325006E+06  1.442441E+06  1.357065E+06  1.333872E+06  1.322663E+06  1.328261E+06  1.332005E+06  1.365860E+06  1.341642E+06
 1.323518E+06  1.321213E+06  1.322328E+06  1.325940E+06  1.324955E+06  1.331968E+06  1.328661E+06  1.367909E+06  1.321075E+06  1.321336E+06
 1.346319E+06  1.333780E+06  1.372089E+06  1.409163E+06  1.339810E+06  1.342369E+06  1.323684E+06  1.336517E+06  1.347296E+06  1.380497E+06