# vtk DataFile Version 2.0
PFLOTRAN output
ASCII
DATASET UNSTRUCTURED_GRID
CELL_DATA   14538
SCALARS Liquid_Pressure      float 1
LOOKUP_TABLE default
 2.000000E+06  2.000000E+06  2.000000E+06  2.000000E+06  2.000000E+06  2.000000E+06  2.000000E+06  2.000000E+06  2.000000E+06  2.000000E+06
 2.000000E+06  2.000000E+06  2.000000E+06  2.000000E+06  2.000000E+06  2.000000E+06  2.000000E+06  2.000000E+06  1.972141E+06  1.964441E+06
 1.961402E+06  1.962842E+06  1.961522E+06  1.964298E+06  1.959353E+06  1.957465E+06  1.958111E+06  1.956518E+06  1.957476E+06  1.954370E+06
 1.950147E+06  1.950481E+06  1.943768E+06  1.935090E+06  1.938381E+06  1.929674E+06  1.929835E+06  1.917011E+06  1.918498E+06  1.919365E+06
 1.916999E+06  1.915351E+06  1.908984E+06  1.910567E+06  1.913924E+06  1.907980E+06  1.918663E+06  1.902827E+06  1.901769E+06  1.904612E+06
 1.902831E+06  1.893323E+06  1.884463E+06  1.887262E+06  1.883420E+06  1.879262E+06  1.877066E+06  1.875811E+06  1.872988E+06  1.869673E+06
 1.870588E+06  1.867218E+06  1.865676E+06  1.860610E+06  1.863640E+06  1.853093E+06  1.853259E+06  1.853469E+06  1.854288E+06  1.848659E+06
 1.844804E+06  1.841344E+06  1.829987E+06  1.826697E+06  1.831495E+06  1.835530E+06  1.826223E+06  1.821963E+06  1.823135E+06  1.822720E+06
 1.825176E+06  1.821097E+06  1.824072E+06  1.817248E+06  1.818919E+06  1.805341E+06  1.804747E+06  1.800732E+06  1.798645E+06  1.797075E+06
 1.794157E+06  1.797019E+06  1.790438E+06  1.795500E+06  1.780623E+06  1.784533E+06  1.779486E+06  1.791018E+06  1.786113E+06  1.790495E+06
 1.786420E+06  1.787503E+06  1.778777E+06  1.771254E+06  1.771831E+06  1.757657E+06  1.757060E+06  1.764751E+06  1.767220E+06  1.757834E+06
 1.759801E+06  1.749482E+06  1.747059E+06  1.759838E+06  1.746214E+06  1.747382E+06  1.747989E+06  1.754279E+06  1.744773E+06  1.751116E+06
 1.729408E+06  1.733005E+06  1.729137E+06  1.733466E+06  1.738308E+06  1.732087E+06  1.747482E+06  1.748465E+06  1.721788E+06  1.716212E+06
 1.716384E+06  1.734183E+06  1.711139E+06  1.718275E+06  1.706522E+06  1.724280E+06  1.723236E+06  1.729293E+06  1.706597E+06  1.707187E+06
 1.720580E+06  1.712955E+06  1.707294E+06  1.699767E+06  1.694108E+06  1.689832E+06  1.696117E+06  1.689493E+06  1.714614E+06  1.715157E+06
 1.714753E+06  1.714158E+06  1.698663E+06  1.685307E+06  1.687846E+06  1.689392E+06  1.677748E+06  1.683380E+06  1.695696E+06  1.672673E+06
 1.673243E+06  1.693822E+06  1.675402E+06  1.688585E+06  1.671798E+06  1.664164E+06  1.675336E+06  1.660759E+06  1.677260E+06  1.673891E+06
 1.688981E+06  1.686584E+06  1.662867E+06  1.673099E+06  1.655398E+06  1.652650E+06  1.681860E+06  1.650840E+06  1.680662E+06  1.646616E+06
 1.664949E+06  1.655135E+06  1.644018E+06  1.647318E+06  1.649150E+06  1.643659E+06  1.639118E+06  1.649492E+06  1.636809E+06  1.641649E+06
 1.641811E+06  1.654876E+06  1.667373E+06  1.668051E+06  1.662526E+06  1.632587E+06  1.651554E+06  1.644616E+06  1.642158E+06  1.656736E+06
 1.630009E+06  1.623438E+06  1.627140E+06  1.621420E+06  1.656425E+06  1.659385E+06  1.647318E+06  1.624636E+06  1.620309E+06  1.616500E+06
 1.634788E+06  1.620013E+06  1.615185E+06  1.626340E+06  1.616502E+06  1.640672E+06  1.620354E+06  1.632931E+06  1.619498E+06  1.605225E+06
 1.611545E+06  1.618656E+06  1.601304E+06  1.604202E+06  1.629861E+06  1.600467E+06  1.615706E+06  1.642803E+06  1.600419E+06  1.624334E+06
 1.606721E+06  1.598335E+06  1.642231E+06  1.599088E+06  1.642426E+06  1.642853E+06  1.614332E+06  1.602398E+06  1.614354E+06  1.628908E+06
 1.599524E+06  1.639502E+06  1.639656E+06  1.603923E+06  1.587470E+06  1.589108E+06  1.599789E+06  1.587926E+06  1.594316E+06  1.626306E+06
 1.591387E+06  1.626374E+06  1.606704E+06  1.614805E+06  1.582697E+06  1.612728E+06  1.586109E+06  1.586072E+06  1.584808E+06  1.588689E+06
 1.577756E+06  1.622970E+06  1.578623E+06  1.599666E+06  1.594637E+06  1.580269E+06  1.583132E+06  1.589771E+06  1.579887E+06  1.612392E+06
 1.573296E+06  1.571610E+06  1.600265E+06  1.572332E+06  1.571940E+06  1.573312E+06  1.588320E+06  1.568090E+06  1.567444E+06  1.581616E+06
 1.589715E+06  1.566994E+06  1.581762E+06  1.576339E+06  1.602962E+06  1.571989E+06  1.569126E+06  1.591470E+06  1.559342E+06  1.561456E+06
 1.565204E+06  1.567579E+06  1.573564E+06  1.596688E+06  1.603658E+06  1.612728E+06  1.560305E+06  1.562412E+06  1.559501E+06  1.582796E+06
 1.568972E+06  1.560181E+06  1.557645E+06  1.554949E+06  1.559301E+06  1.587677E+06  1.573036E+06  1.555845E+06  1.602703E+06  1.560065E+06
 1.576955E+06  1.561185E+06  1.550934E+06  1.579326E+06  1.549409E+06  1.546974E+06  1.602321E+06  1.576654E+06  1.557925E+06  1.556372E+06
 1.568866E+06  1.552825E+06  1.563189E+06  1.548442E+06  1.603904E+06  1.560496E+06  1.563409E+06  1.545935E+06  1.542934E+06  1.542937E+06
 1.544031E+06  1.545072E+06  1.548522E+06  1.555669E+06  1.540961E+06  1.565791E+06  1.578185E+06  1.547886E+06  1.597615E+06  1.561289E+06
 1.590471E+06  1.546119E+06  1.542246E+06  1.539770E+06  1.591332E+06  1.536720E+06  1.550868E+06  1.536441E+06  1.535181E+06  1.580615E+06
 1.541400E+06  1.536110E+06  1.532671E+06  1.540210E+06  1.552951E+06  1.595693E+06  1.595272E+06  1.562026E+06  1.537511E+06  1.563767E+06
 1.530550E+06  1.580490E+06  1.537618E+06  1.534332E+06  1.540336E+06  1.534204E+06  1.541055E+06  1.532599E+06  1.545957E+06  1.554882E+06
 1.537561E+06  1.564313E+06  1.528206E+06  1.541905E+06  1.535668E+06  1.567481E+06  1.547600E+06  1.532543E+06  1.526313E+06  1.525287E+06
 1.523014E+06  1.569930E+06  1.561575E+06  1.536316E+06  1.523266E+06  1.537168E+06  1.532034E+06  1.528067E+06  1.530383E+06  1.522529E+06
 1.522978E+06  1.524908E+06  1.529775E+06  1.575028E+06  1.525540E+06  1.537239E+06  1.522603E+06  1.540348E+06  1.554977E+06  1.521743E+06
 1.543007E+06  1.522525E+06  1.520676E+06  1.522117E+06  1.519312E+06  1.524195E+06  1.525137E+06  1.523675E+06  1.560191E+06  1.545313E+06
 1.541117E+06  1.542133E+06  1.515916E+06  1.528843E+06  1.514031E+06  1.527116E+06  1.515442E+06  1.520253E+06  1.514209E+06  1.515120E+06
 1.532777E+06  1.512965E+06  1.545054E+06  1.523707E+06  1.522234E+06  1.517356E+06  1.514823E+06  1.549574E+06  1.511614E+06  1.529926E+06
 1.527136E+06  1.521927E+06  1.514047E+06  1.514942E+06  1.509727E+06  1.523058E+06  1.514554E+06  1.510199E+06  1.509007E+06  1.516862E+06
 1.541366E+06  1.516594E+06  1.515067E+06  1.516663E+06  1.514083E+06  1.515989E+06  1.528598E+06  1.518802E+06  1.536491E+06  1.505610E+06
 1.505444E+06  1.555482E+06  1.504483E+06  1.508672E+06  1.507984E+06  1.507423E+06  1.558369E+06  1.525355E+06  1.504974E+06  1.504112E+06
 1.504330E+06  1.547462E+06  1.531094E+06  1.503168E+06  1.546310E+06  1.510040E+06  1.522248E+06  1.513145E+06  1.508758E+06  1.504057E+06
 1.520577E+06  1.504202E+06  1.504250E+06  1.502821E+06  1.524545E+06  1.516366E+06  1.512775E+06  1.526249E+06  1.509672E+06  1.499100E+06
 1.505767E+06  1.501126E+06  1.507246E+06  1.560467E+06  1.515754E+06  1.503297E+06  1.500771E+06  1.501349E+06  1.554699E+06  1.503241E+06
 1.504313E+06  1.535530E+06  1.501585E+06  1.529080E+06  1.505970E+06  1.565272E+06  1.504689E+06  1.508799E+06  1.502153E+06  1.497406E+06
 1.511376E+06  1.534956E+06  1.516360E+06  1.500980E+06  1.514611E+06  1.501784E+06  1.538579E+06  1.569461E+06  1.570036E+06  1.494674E+06
 1.564942E+06  1.495767E+06  1.507813E+06  1.507623E+06  1.519394E+06  1.494070E+06  1.493488E+06  1.494028E+06  1.502836E+06  1.492938E+06
 1.493022E+06  1.558784E+06  1.566392E+06  1.503698E+06  1.495377E+06  1.502732E+06  1.492986E+06  1.492452E+06  1.501603E+06  1.543969E+06
 1.500592E+06  1.491080E+06  1.511662E+06  1.491700E+06  1.499234E+06  1.502868E+06  1.497227E+06  1.498258E+06  1.497524E+06  1.490195E+06
 1.493320E+06  1.566584E+06  1.566428E+06  1.525064E+06  1.524540E+06  1.505759E+06  1.518165E+06  1.493005E+06  1.497071E+06  1.493223E+06
 1.490807E+06  1.518799E+06  1.510723E+06  1.505750E+06  1.510947E+06  1.501774E+06  1.495197E+06  1.493608E+06  1.494125E+06  1.497076E+06
 1.490314E+06  1.488753E+06  1.513665E+06  1.496265E+06  1.490031E+06  1.494356E+06  1.491078E+06  1.489829E+06  1.491327E+06  1.503712E+06
 1.488467E+06  1.497785E+06  1.485902E+06  1.487686E+06  1.493162E+06  1.534269E+06  1.498937E+06  1.494737E+06  1.485169E+06  1.499054E+06
 1.487086E+06  1.485252E+06  1.498201E+06  1.488726E+06  1.484487E+06  1.484480E+06  1.500811E+06  1.491322E+06  1.546898E+06  1.482852E+06
 1.487922E+06  1.525954E+06  1.535165E+06  1.483768E+06  1.490706E+06  1.485307E+06  1.520122E+06  1.556779E+06  1.481805E+06  1.487512E+06
 1.481302E+06  1.481281E+06  1.487967E+06  1.481051E+06  1.526993E+06  1.539618E+06  1.488121E+06  1.498955E+06  1.485632E+06  1.492954E+06
 1.485043E+06  1.480371E+06  1.491539E+06  1.480037E+06  1.483879E+06  1.481437E+06  1.480484E+06  1.519989E+06  1.495163E+06  1.489835E+06
 1.491186E+06  1.512301E+06  1.483108E+06  1.510947E+06  1.506261E+06  1.486778E+06  1.502430E+06  1.497528E+06  1.484296E+06  1.488283E+06
 1.479045E+06  1.501017E+06  1.488112E+06  1.483303E+06  1.480974E+06  1.482719E+06  1.484731E+06  1.478007E+06  1.480641E+06  1.478951E+06
 1.483938E+06  1.486260E+06  1.478429E+06  1.477469E+06  1.478990E+06  1.479803E+06  1.480113E+06  1.490116E+06  1.479481E+06  1.503496E+06
 1.483825E+06  1.484736E+06  1.475933E+06  1.486684E+06  1.476291E+06  1.476877E+06  1.491348E+06  1.505710E+06  1.483578E+06  1.480073E+06
 1.495456E+06  1.477581E+06  1.510484E+06  1.474219E+06  1.476175E+06  1.489795E+06  1.487370E+06  1.510605E+06  1.498725E+06  1.487714E+06
 1.475007E+06  1.541916E+06  1.494094E+06  1.486324E+06  1.477862E+06  1.481239E+06  1.478019E+06  1.477460E+06  1.479284E+06  1.484677E+06
 1.489631E+06  1.473714E+06  1.478727E+06  1.476629E+06  1.474179E+06  1.482989E+06  1.477670E+06  1.480665E+06  1.471333E+06  1.476219E+06
 1.471489E+06  1.471138E+06  1.515321E+06  1.473923E+06  1.472809E+06  1.477852E+06  1.480365E+06  1.521199E+06  1.484489E+06  1.476057E+06
 1.471507E+06  1.471024E+06  1.473256E+06  1.477346E+06  1.483773E+06  1.474527E+06  1.472792E+06  1.473284E+06  1.526099E+06  1.476936E+06
 1.468085E+06  1.472912E+06  1.500749E+06  1.466201E+06  1.482542E+06  1.477826E+06  1.508138E+06  1.466754E+06  1.470315E+06  1.467988E+06
 1.486926E+06  1.466688E+06  1.467175E+06  1.473334E+06  1.480431E+06  1.488120E+06  1.466046E+06  1.483904E+06  1.479200E+06  1.507354E+06
 1.465784E+06  1.465896E+06  1.471615E+06  1.467832E+06  1.465480E+06  1.467904E+06  1.520080E+06  1.492961E+06  1.465873E+06  1.466607E+06
 1.467168E+06  1.479476E+06  1.468721E+06  1.486465E+06  1.464957E+06  1.489350E+06  1.476647E+06  1.480690E+06  1.465110E+06  1.493257E+06
 1.468079E+06  1.466195E+06  1.473793E+06  1.475495E+06  1.482031E+06  1.474357E+06  1.466157E+06  1.465697E+06  1.468401E+06  1.473756E+06
 1.470193E+06  1.470737E+06  1.475298E+06  1.528443E+06  1.470770E+06  1.482318E+06  1.470239E+06  1.472223E+06  1.463441E+06  1.510782E+06
 1.471057E+06  1.468704E+06  1.471604E+06  1.493209E+06  1.462796E+06  1.465462E+06  1.470782E+06  1.463543E+06  1.462282E+06  1.467793E+06
 1.487747E+06  1.465392E+06  1.469184E+06  1.462332E+06  1.462354E+06  1.475180E+06  1.468134E+06  1.466574E+06  1.498992E+06  1.464030E+06
 1.466421E+06  1.480012E+06  1.461249E+06  1.464324E+06  1.477638E+06  1.464490E+06  1.464784E+06  1.483580E+06  1.465271E+06  1.496442E+06
 1.460411E+06  1.460527E+06  1.460785E+06  1.460124E+06  1.459897E+06  1.460493E+06  1.474643E+06  1.472128E+06  1.473350E+06  1.463798E+06
 1.535171E+06  1.466990E+06  1.469862E+06  1.469071E+06  1.473026E+06  1.473989E+06  1.465604E+06  1.459832E+06  1.467235E+06  1.470968E+06
 1.460932E+06  1.460639E+06  1.458766E+06  1.464660E+06  1.469198E+06  1.460820E+06  1.459620E+06  1.457944E+06  1.463623E+06  1.460782E+06
 1.507670E+06  1.459941E+06  1.520613E+06  1.466211E+06  1.476625E+06  1.459428E+06  1.469275E+06  1.489057E+06  1.457106E+06  1.480622E+06
 1.464163E+06  1.458499E+06  1.457098E+06  1.460792E+06  1.463844E+06  1.483317E+06  1.466184E+06  1.462134E+06  1.476860E+06  1.468355E+06
 1.477699E+06  1.462143E+06  1.465813E+06  1.464458E+06  1.467202E+06  1.458862E+06  1.456802E+06  1.460818E+06  1.460974E+06  1.489173E+06
 1.512770E+06  1.457293E+06  1.466142E+06  1.458585E+06  1.456427E+06  1.456326E+06  1.463972E+06  1.457241E+06  1.472875E+06  1.475131E+06
 1.456133E+06  1.456552E+06  1.457168E+06  1.462913E+06  1.482551E+06  1.455543E+06  1.525257E+06  1.455755E+06  1.458512E+06  1.456313E+06
 1.471526E+06  1.455220E+06  1.456916E+06  1.454948E+06  1.457272E+06  1.498189E+06  1.455356E+06  1.457986E+06  1.454593E+06  1.457507E+06
 1.466992E+06  1.454689E+06  1.468277E+06  1.454617E+06  1.456304E+06  1.458550E+06  1.458822E+06  1.458896E+06  1.460085E+06  1.456670E+06
 1.455995E+06  1.454285E+06  1.461893E+06  1.453784E+06  1.458375E+06  1.453828E+06  1.474573E+06  1.453668E+06  1.456267E+06  1.455653E+06
 1.468182E+06  1.455472E+06  1.535311E+06  1.476453E+06  1.470213E+06  1.454178E+06  1.465568E+06  1.461883E+06  1.464892E+06  1.467654E+06
 1.458770E+06  1.482045E+06  1.453024E+06  1.465771E+06  1.461152E+06  1.452421E+06  1.452301E+06  1.470004E+06  1.453405E+06  1.451824E+06
 1.451973E+06  1.506487E+06  1.462803E+06  1.463396E+06  1.457198E+06  1.459113E+06  1.461250E+06  1.457618E+06  1.453985E+06  1.461154E+06
 1.458222E+06  1.451016E+06  1.495135E+06  1.471972E+06  1.466480E+06  1.487772E+06  1.456167E+06  1.453734E+06  1.455494E+06  1.457419E+06
 1.459057E+06  1.454798E+06  1.461203E+06  1.454999E+06  1.531859E+06  1.452681E+06  1.451461E+06  1.458845E+06  1.450684E+06  1.461649E+06
 1.478914E+06  1.536381E+06  1.485172E+06  1.524601E+06  1.497308E+06  1.521262E+06  1.506971E+06  1.502894E+06  1.475440E+06  1.509779E+06
 1.535413E+06  1.445340E+06  1.489199E+06  1.480477E+06  1.445677E+06  1.445070E+06  1.447154E+06  1.453329E+06  1.445292E+06  1.456953E+06
 1.444073E+06  1.447999E+06  1.443965E+06  1.448165E+06  1.463030E+06  1.444455E+06  1.451916E+06  1.445389E+06  1.445366E+06  1.447581E+06
 1.445064E+06  1.492709E+06  1.451653E+06  1.452810E+06  1.456202E+06  1.460052E+06  1.445420E+06  1.448599E+06  1.461330E+06  1.444368E+06
 1.474034E+06  1.465957E+06  1.447543E+06  1.448771E+06  1.443320E+06  1.447733E+06  1.458522E+06  1.453941E+06  1.448894E+06  1.470974E+06
 1.464226E+06  1.467934E+06  1.457369E+06  1.443620E+06  1.443425E+06  1.442833E+06  1.454930E+06  1.447709E+06  1.443323E+06  1.444459E+06
 1.443678E+06  1.448580E+06  1.442562E+06  1.450123E+06  1.443156E+06  1.465401E+06  1.449224E+06  1.445148E+06  1.445491E+06  1.532573E+06
 1.446139E+06  1.448763E+06  1.442264E+06  1.448203E+06  1.455728E+06  1.469370E+06  1.444497E+06  1.451291E+06  1.447219E+06  1.452295E+06
 1.460082E+06  1.443425E+06  1.443326E+06  1.453249E+06  1.441895E+06  1.442613E+06  1.442857E+06  1.443402E+06  1.441791E+06  1.463051E+06
 1.444096E+06  1.449426E+06  1.445218E+06  1.444444E+06  1.456828E+06  1.527477E+06  1.441234E+06  1.441913E+06  1.451471E+06  1.452027E+06
 1.461120E+06  1.441820E+06  1.446139E+06  1.458900E+06  1.441152E+06  1.443170E+06  1.494928E+06  1.440967E+06  1.445525E+06  1.441237E+06
 1.481199E+06  1.476001E+06  1.441405E+06  1.444849E+06  1.445478E+06  1.455533E+06  1.444188E+06  1.457738E+06  1.460725E+06  1.449642E+06
 1.441845E+06  1.447104E+06  1.448214E+06  1.453979E+06  1.440978E+06  1.447552E+06  1.445929E+06  1.441730E+06  1.450106E+06  1.441295E+06
 1.440748E+06  1.440089E+06  1.440203E+06  1.456808E+06  1.475139E+06  1.531330E+06  1.530812E+06  1.448606E+06  1.444050E+06  1.441616E+06
 1.442445E+06  1.448436E+06  1.441591E+06  1.450262E+06  1.440598E+06  1.444788E+06  1.452532E+06  1.464971E+06  1.444095E+06  1.440956E+06
 1.439774E+06  1.465552E+06  1.470695E+06  1.440800E+06  1.447446E+06  1.441604E+06  1.449772E+06  1.448895E+06  1.446526E+06  1.502947E+06
 1.439794E+06  1.445192E+06  1.490235E+06  1.470825E+06  1.440657E+06  1.455343E+06  1.440873E+06  1.445313E+06  1.452661E+06  1.496093E+06
 1.453473E+06  1.444201E+06  1.451077E+06  1.461134E+06  1.447755E+06  1.439902E+06  1.439642E+06  1.450516E+06  1.438638E+06  1.466544E+06
 1.480911E+06  1.442585E+06  1.449970E+06  1.507121E+06  1.440943E+06  1.439040E+06  1.440146E+06  1.445231E+06  1.438421E+06  1.438218E+06
 1.441561E+06  1.438541E+06  1.462482E+06  1.450881E+06  1.457145E+06  1.437983E+06  1.453508E+06  1.466604E+06  1.438021E+06  1.440645E+06
 1.437757E+06  1.438200E+06  1.442188E+06  1.438993E+06  1.442353E+06  1.457435E+06  1.446288E+06  1.437326E+06  1.441533E+06  1.448397E+06
 1.447242E+06  1.439739E+06  1.457897E+06  1.448052E+06  1.436977E+06  1.438586E+06  1.441925E+06  1.440702E+06  1.442864E+06  1.505507E+06
 1.459846E+06  1.439685E+06  1.436575E+06  1.441134E+06  1.436654E+06  1.445316E+06  1.461313E+06  1.440285E+06  1.437416E+06  1.437030E+06
 1.444095E+06  1.438574E+06  1.436339E+06  1.454469E+06  1.436610E+06  1.437101E+06  1.442884E+06  1.437573E+06  1.438617E+06  1.436057E+06
 1.436234E+06  1.445843E+06  1.439341E+06  1.441839E+06  1.479493E+06  1.435374E+06  1.485608E+06  1.508301E+06  1.440292E+06  1.469027E+06
 1.453325E+06  1.491422E+06  1.435253E+06  1.434566E+06  1.434703E+06  1.435086E+06  1.471870E+06  1.442367E+06  1.438351E+06  1.449738E+06
 1.460848E+06  1.434453E+06  1.444204E+06  1.440543E+06  1.442696E+06  1.464395E+06  1.438856E+06  1.491739E+06  1.485472E+06  1.511867E+06
 1.456175E+06  1.472913E+06  1.446398E+06  1.450396E+06  1.439326E+06  1.449394E+06  1.434935E+06  1.438821E+06  1.440539E+06  1.432615E+06
 1.432463E+06  1.436496E+06  1.435180E+06  1.447386E+06  1.452458E+06  1.434060E+06  1.432276E+06  1.447060E+06  1.437172E+06  1.464067E+06
 1.431805E+06  1.443171E+06  1.431408E+06  1.433531E+06  1.431478E+06  1.438910E+06  1.431189E+06  1.437311E+06  1.504589E+06  1.432714E+06
 1.430995E+06  1.444224E+06  1.432776E+06  1.431686E+06  1.477395E+06  1.436004E+06  1.452258E+06  1.449727E+06  1.434029E+06  1.430524E+06
 1.439424E+06  1.431454E+06  1.430817E+06  1.431766E+06  1.433909E+06  1.440186E+06  1.432892E+06  1.443524E+06  1.444220E+06  1.429828E+06
 1.435555E+06  1.466527E+06  1.430897E+06  1.459048E+06  1.430227E+06  1.432427E+06  1.429536E+06  1.437260E+06  1.453181E+06  1.428212E+06
 1.455864E+06  1.435154E+06  1.451007E+06  1.479436E+06  1.433037E+06  1.432151E+06  1.433372E+06  1.439574E+06  1.473045E+06  1.435490E+06
 1.440855E+06  1.487827E+06  1.454674E+06  1.458434E+06  1.430259E+06  1.510373E+06  1.466921E+06  1.436897E+06  1.426909E+06  1.428688E+06
 1.461689E+06  1.427047E+06  1.428458E+06  1.437512E+06  1.494475E+06  1.429158E+06  1.445370E+06  1.427158E+06  1.426273E+06  1.425741E+06
 1.430344E+06  1.426404E+06  1.426066E+06  1.446421E+06  1.431825E+06  1.431479E+06  1.425617E+06  1.433378E+06  1.449453E+06  1.424776E+06
 1.432087E+06  1.425248E+06  1.424922E+06  1.446404E+06  1.426552E+06  1.501566E+06  1.434440E+06  1.427515E+06  1.442206E+06  1.467497E+06
 1.437543E+06  1.432870E+06  1.426440E+06  1.440435E+06  1.425348E+06  1.424438E+06  1.424693E+06  1.426237E+06  1.423616E+06  1.430378E+06
 1.441925E+06  1.427451E+06  1.477367E+06  1.423675E+06  1.437955E+06  1.432927E+06  1.426563E+06  1.481159E+06  1.430306E+06  1.509161E+06
 1.422725E+06  1.433913E+06  1.439259E+06  1.452694E+06  1.431206E+06  1.456710E+06  1.423658E+06  1.472726E+06  1.486277E+06  1.427871E+06
 1.427312E+06  1.425215E+06  1.422698E+06  1.425563E+06  1.448327E+06  1.468765E+06  1.436508E+06  1.444950E+06  1.458701E+06  1.433421E+06
 1.421660E+06  1.432728E+06  1.447182E+06  1.422605E+06  1.431195E+06  1.419415E+06  1.419834E+06  1.505810E+06  1.461858E+06  1.452427E+06
 1.492299E+06  1.450078E+06  1.419169E+06  1.438957E+06  1.425027E+06  1.455948E+06  1.506813E+06  1.506314E+06  1.423426E+06  1.418002E+06
 1.417814E+06  1.418889E+06  1.425054E+06  1.421263E+06  1.422619E+06  1.417466E+06  1.417578E+06  1.438662E+06  1.479650E+06  1.439599E+06
 1.506342E+06  1.506983E+06  1.442023E+06  1.425629E+06  1.418054E+06  1.419394E+06  1.417329E+06  1.427906E+06  1.423671E+06  1.426628E+06
 1.417909E+06  1.497031E+06  1.421512E+06  1.416078E+06  1.417881E+06  1.416488E+06  1.415665E+06  1.423754E+06  1.418631E+06  1.430485E+06
 1.414724E+06  1.434349E+06  1.465626E+06  1.417557E+06  1.424469E+06  1.445740E+06  1.427077E+06  1.418648E+06  1.425578E+06  1.479051E+06
 1.430804E+06  1.414356E+06  1.456741E+06  1.426658E+06  1.464886E+06  1.468713E+06  1.428517E+06  1.418366E+06  1.490885E+06  1.416223E+06
 1.481412E+06  1.413822E+06  1.431860E+06  1.451648E+06  1.447524E+06  1.436283E+06  1.419782E+06  1.414013E+06  1.455765E+06  1.438387E+06
 1.410869E+06  1.410640E+06  1.416715E+06  1.411524E+06  1.412693E+06  1.410842E+06  1.439598E+06  1.414664E+06  1.433562E+06  1.423443E+06
 1.408786E+06  1.413603E+06  1.469191E+06  1.444409E+06  1.430295E+06  1.408344E+06  1.408260E+06  1.410942E+06  1.407599E+06  1.411311E+06
 1.417764E+06  1.407206E+06  1.437882E+06  1.407081E+06  1.410626E+06  1.411067E+06  1.414401E+06  1.408737E+06  1.418188E+06  1.420144E+06
 1.406351E+06  1.414734E+06  1.422102E+06  1.407720E+06  1.453649E+06  1.488985E+06  1.413204E+06  1.465439E+06  1.423693E+06  1.416518E+06
 1.420476E+06  1.423923E+06  1.452281E+06  1.405344E+06  1.437984E+06  1.428334E+06  1.443545E+06  1.408797E+06  1.401585E+06  1.475495E+06
 1.424884E+06  1.404851E+06  1.441745E+06  1.428632E+06  1.402298E+06  1.400910E+06  1.466777E+06  1.452461E+06  1.433607E+06  1.402453E+06
 1.404735E+06  1.399022E+06  1.413746E+06  1.399093E+06  1.405388E+06  1.399955E+06  1.410961E+06  1.398699E+06  1.402796E+06  1.408071E+06
 1.473437E+06  1.427460E+06  1.419768E+06  1.400844E+06  1.481598E+06  1.452360E+06  1.396543E+06  1.397141E+06  1.415158E+06  1.404748E+06
 1.461077E+06  1.404889E+06  1.407406E+06  1.442162E+06  1.483344E+06  1.396378E+06  1.431096E+06  1.408584E+06  1.483741E+06  1.412028E+06
 1.415550E+06  1.395219E+06  1.418385E+06  1.430108E+06  1.450740E+06  1.437883E+06  1.390104E+06  1.395748E+06  1.396961E+06  1.396450E+06
 1.391036E+06  1.398042E+06  1.469932E+06  1.390697E+06  1.420304E+06  1.400882E+06  1.415615E+06  1.481150E+06  1.478547E+06  1.388891E+06
 1.392786E+06  1.397913E+06  1.402890E+06  1.431202E+06  1.387454E+06  1.395212E+06  1.386280E+06  1.388382E+06  1.404906E+06  1.408392E+06
 1.385149E+06  1.435750E+06  1.417397E+06  1.449154E+06  1.439872E+06  1.386806E+06  1.395011E+06  1.422384E+06  1.386581E+06  1.418818E+06
 1.449630E+06  1.396797E+06  1.391447E+06  1.466536E+06  1.464630E+06  1.402755E+06  1.406610E+06  1.399267E+06  1.382668E+06  1.383787E+06
 1.452034E+06  1.387025E+06  1.380928E+06  1.424110E+06  1.408503E+06  1.434305E+06  1.378062E+06  1.383675E+06  1.378422E+06  1.376938E+06
 1.389183E+06  1.418640E+06  1.390618E+06  1.376112E+06  1.467122E+06  1.392833E+06  1.379804E+06  1.377128E+06  1.382655E+06  1.400517E+06
 1.451424E+06  1.396586E+06  1.406687E+06  1.380985E+06  1.433829E+06  1.422224E+06  1.405235E+06  1.431532E+06  1.418659E+06  1.373629E+06
 1.381395E+06  1.384264E+06  1.374552E+06  1.372510E+06  1.449436E+06  1.407974E+06  1.389883E+06  1.370242E+06  1.369194E+06  1.459883E+06
 1.370664E+06  1.386022E+06  1.396332E+06  1.374015E+06  1.367717E+06  1.462799E+06  1.461952E+06  1.464104E+06  1.465240E+06  1.367064E+06
 1.435747E+06  1.375915E+06  1.418137E+06  1.433883E+06  1.408664E+06  1.392572E+06  1.403773E+06  1.365001E+06  1.371200E+06  1.375713E+06
 1.368351E+06  1.384544E+06  1.365331E+06  1.377270E+06  1.393631E+06  1.393341E+06  1.447838E+06  1.367143E+06  1.372122E+06  1.363504E+06
 1.360428E+06  1.381435E+06  1.413080E+06  1.361371E+06  1.360246E+06  1.359201E+06  1.418155E+06  1.420886E+06  1.358323E+06  1.447890E+06
 1.359345E+06  1.374054E+06  1.401674E+06  1.393687E+06  1.434505E+06  1.360387E+06  1.381769E+06  1.365018E+06  1.380243E+06  1.450299E+06
 1.354158E+06  1.390475E+06  1.360007E+06  1.352945E+06  1.404389E+06  1.396545E+06  1.435696E+06  1.426737E+06  1.360755E+06  1.351378E+06
 1.364548E+06  1.364690E+06  1.355739E+06  1.416268E+06  1.381060E+06  1.353957E+06  1.370045E+06  1.349985E+06  1.380183E+06  1.352106E+06
 1.367054E+06  1.349486E+06  1.351730E+06  1.349993E+06  1.354641E+06  1.418410E+06  1.369905E+06  1.398618E+06  1.408066E+06  1.347403E+06
 1.386704E+06  1.360315E+06  1.385035E+06  1.355504E+06  1.446426E+06  1.391887E+06  1.345065E+06  1.369126E+06  1.377347E+06  1.400674E+06
 1.343323E+06  1.351487E+06  1.355299E+06  1.348819E+06  1.430413E+06  1.346623E+06  1.376687E+06  1.370812E+06  1.364733E+06  1.344502E+06
 1.341273E+06  1.346790E+06  1.340850E+06  1.355658E+06  1.385855E+06  1.340230E+06  1.347529E+06  1.359474E+06  1.351074E+06  1.341286E+06
 1.339323E+06  1.446862E+06  1.405566E+06  1.422098E+06  1.356392E+06  1.347669E+06  1.340755E+06  1.367136E+06  1.336871E+06  1.341281E+06
 1.418783E+06  1.430625E+06  1.404580E+06  1.338112E+06  1.339896E+06  1.342407E+06  1.341516E+06  1.433680E+06  1.389264E+06  1.372665E+06
 1.378916E+06  1.335443E+06  1.358399E+06  1.349290E+06  1.372251E+06  1.449035E+06  1.446814E+06  1.351524E+06  1.435696E+06  1.382866E+06
 1.373920E+06  1.409325E+06  1.343468E+06  1.344257E+06  1.359905E+06  1.332468E+06  1.338278E+06  1.358156E+06  1.364421E+06  1.345983E+06
 1.391408E+06  1.335790E+06  1.333447E+06  1.406858E+06  1.332403E+06  1.338633E+06  1.383989E+06  1.330715E+06  1.330587E+06  1.361921E+06
 1.329447E+06  1.329553E+06  1.329328E+06  1.435619E+06  1.349549E+06  1.350925E+06  1.332171E+06  1.334027E+06  1.387795E+06  1.341332E+06
 1.337367E+06  1.376857E+06  1.329523E+06  1.343930E+06  1.338581E+06  1.370056E+06  1.327749E+06  1.327185E+06  1.333748E+06  1.354968E+06
 1.328625E+06  1.330466E+06  1.336583E+06  1.370427E+06  1.341643E+06  1.327994E+06  1.350719E+06  1.330921E+06  1.360694E+06  1.328832E+06
 1.392324E+06  1.325943E+06  1.378876E+06  1.346943E+06  1.396999E+06  1.363401E+06  1.444843E+06  1.326909E+06  1.344289E+06  1.338034E+06
 1.348399E+06  1.335248E+06  1.387706E+06  1.340833E+06  1.329580E+06  1.370656E+06  1.351282E+06  1.331994E+06  1.407675E+06  1.323071E+06
 1.324125E+06  1.356922E+06  1.341140E+06  1.335516E+06  1.322563E+06  1.417884E+06  1.416832E+06  1.353069E+06  1.360321E+06  1.326446E+06
 1.373064E+06  1.380557E+06  1.327589E+06  1.320664E+06  1.337110E+06  1.320818E+06  1.320926E+06  1.319610E+06  1.321487E+06  1.404061E+06
 1.319066E+06  1.320030E+06  1.324865E+06  1.328920E+06  1.326949E+06  1.349264E+06  1.361032E+06  1.333945E+06  1.330743E+06  1.318865E+06
 1.328284E+06  1.322063E+06  1.319367E+06  1.374092E+06  1.366021E+06  1.328716E+06  1.393233E+06  1.339334E+06  1.337252E+06  1.319987E+06
 1.321957E+06  1.357431E+06  1.351392E+06  1.340987E+06  1.322400E+06  1.317010E+06  1.345836E+06  1.360043E+06  1.318239E+06  1.318956E+06
 1.319164E+06  1.341760E+06  1.322361E+06  1.421421E+06  1.336438E+06  1.327557E+06  1.329338E+06  1.334090E+06  1.328428E+06  1.316849E+06
 1.368011E+06  1.330209E+06  1.345338E+06  1.340662E+06  1.380972E+06  1.395065E+06  1.350096E+06  1.314177E+06  1.359610E+06  1.317845E+06
 1.385060E+06  1.329606E+06  1.314326E+06  1.349469E+06  1.313537E+06  1.431343E+06  1.312773E+06  1.371544E+06  1.314744E+06  1.336030E+06
 1.312970E+06  1.319425E+06  1.321713E+06  1.329399E+06  1.320407E+06  1.317604E+06  1.313916E+06  1.311481E+06  1.311390E+06  1.351564E+06
 1.370564E+06  1.375030E+06  1.343139E+06  1.321218E+06  1.315732E+06  1.311015E+06  1.359777E+06  1.349556E+06  1.316451E+06  1.337342E+06
 1.330230E+06  1.313019E+06  1.310937E+06  1.419218E+06  1.332209E+06  1.309735E+06  1.321251E+06  1.313548E+06  1.323737E+06  1.338689E+06
 1.309361E+06  1.310239E+06  1.317910E+06  1.337594E+06  1.308906E+06  1.310523E+06  1.316179E+06  1.320522E+06  1.318867E+06  1.349999E+06
 1.340327E+06  1.332039E+06  1.399440E+06  1.329175E+06  1.326162E+06  1.333064E+06  1.313093E+06  1.356654E+06  1.325690E+06  1.429921E+06
 1.308925E+06  1.311583E+06  1.350583E+06  1.308044E+06  1.308466E+06  1.310464E+06  1.308967E+06  1.306735E+06  1.319659E+06  1.312387E+06
 1.308970E+06  1.307385E+06  1.321114E+06  1.350571E+06  1.308805E+06  1.358012E+06  1.315167E+06  1.318784E+06  1.325711E+06  1.327276E+06
 1.312376E+06  1.307797E+06  1.390378E+06  1.380560E+06  1.359488E+06  1.341903E+06  1.308693E+06  1.406337E+06  1.320866E+06  1.306569E+06
 1.304414E+06  1.366728E+06  1.307096E+06  1.337685E+06  1.307404E+06  1.314594E+06  1.340806E+06  1.329819E+06  1.304429E+06  1.308856E+06
 1.398881E+06  1.304136E+06  1.337574E+06  1.308381E+06  1.420930E+06  1.318846E+06  1.309609E+06  1.330610E+06  1.311188E+06  1.319935E+06
 1.309963E+06  1.323564E+06  1.304982E+06  1.321870E+06  1.358765E+06  1.326966E+06  1.305558E+06  1.308478E+06  1.311223E+06  1.381152E+06
 1.369061E+06  1.319685E+06  1.332237E+06  1.341236E+06  1.327613E+06  1.371565E+06  1.311715E+06  1.340245E+06  1.323077E+06  1.312755E+06
 1.301568E+06  1.319172E+06  1.301390E+06  1.301543E+06  1.329118E+06  1.360355E+06  1.314615E+06  1.300767E+06  1.330822E+06  1.304739E+06
 1.324914E+06  1.323533E+06  1.323236E+06  1.300739E+06  1.304645E+06  1.301370E+06  1.301627E+06  1.301047E+06  1.301567E+06  1.341944E+06
 1.345522E+06  1.332061E+06  1.327356E+06  1.301773E+06  1.311290E+06  1.318196E+06  1.309475E+06  1.313263E+06  1.340411E+06  1.301214E+06
 1.403406E+06  1.307102E+06  1.301595E+06  1.299626E+06  1.329752E+06  1.299123E+06  1.298844E+06  1.300689E+06  1.307502E+06  1.300803E+06
 1.304009E+06  1.311026E+06  1.349365E+06  1.313352E+06  1.314788E+06  1.304383E+06  1.301038E+06  1.303030E+06  1.302000E+06  1.331681E+06
 1.303482E+06  1.300907E+06  1.419175E+06  1.333238E+06  1.309818E+06  1.298558E+06  1.304177E+06  1.307980E+06  1.342005E+06  1.317691E+06
 1.299436E+06  1.297115E+06  1.298225E+06  1.301875E+06  1.300884E+06  1.307905E+06  1.304618E+06  1.344159E+06  1.296980E+06  1.297234E+06
 1.322355E+06  1.309732E+06  1.348363E+06  1.385696E+06  1.315804E+06  1.318380E+06  1.299610E+06  1.312530E+06  1.323340E+06  1.356815E+06