# vtk DataFile Version 2.0
PFLOTRAN output
ASCII
DATASET UNSTRUCTURED_GRID
CELL_DATA   14538
SCALARS Liquid_Pressure      float 1
LOOKUP_TABLE default
 2.000000E+06  2.000000E+06  2.000000E+06  2.000000E+06  2.000000E+06  2.000000E+06  2.000000E+06  2.000000E+06  2.000000E+06  2.000000E+06
 2.000000E+06  2.000000E+06  2.000000E+06  2.000000E+06  2.000000E+06  2.000000E+06  2.000000E+06  2.000000E+06  1.973780E+06  1.966526E+06
 1.963658E+06  1.965057E+06  1.963828E+06  1.966400E+06  1.961730E+06  1.959986E+06  1.960594E+06  1.959065E+06  1.960009E+06  1.957065E+06
 1.953062E+06  1.953389E+06  1.947084E+06  1.938880E+06  1.941997E+06  1.933853E+06  1.934026E+06  1.921849E+06  1.923348E+06  1.924075E+06
 1.921964E+06  1.920350E+06  1.914432E+06  1.915892E+06  1.918980E+06  1.913353E+06  1.923485E+06  1.908516E+06  1.907580E+06  1.910237E+06
 1.908606E+06  1.899536E+06  1.891182E+06  1.893888E+06  1.890258E+06  1.886311E+06  1.884208E+06  1.883039E+06  1.880368E+06  1.877435E+06
 1.878253E+06  1.874934E+06  1.873502E+06  1.868754E+06  1.871660E+06  1.861809E+06  1.861897E+06  1.862132E+06  1.862884E+06  1.857480E+06
 1.853893E+06  1.850542E+06  1.839805E+06  1.836719E+06  1.841225E+06  1.845141E+06  1.836260E+06  1.832281E+06  1.833431E+06  1.833213E+06
 1.835466E+06  1.831700E+06  1.834442E+06  1.827863E+06  1.829515E+06  1.816579E+06  1.816206E+06  1.812201E+06  1.810215E+06  1.808866E+06
 1.805987E+06  1.808861E+06  1.802536E+06  1.807350E+06  1.793187E+06  1.796919E+06  1.792114E+06  1.803154E+06  1.798675E+06  1.802761E+06
 1.798993E+06  1.799910E+06  1.791514E+06  1.784448E+06  1.784909E+06  1.771487E+06  1.770925E+06  1.778435E+06  1.780714E+06  1.771698E+06
 1.773674E+06  1.763741E+06  1.761444E+06  1.773839E+06  1.760741E+06  1.761806E+06  1.762446E+06  1.768554E+06  1.759453E+06  1.765654E+06
 1.744740E+06  1.748173E+06  1.744491E+06  1.748722E+06  1.753405E+06  1.747362E+06  1.762240E+06  1.763075E+06  1.737552E+06  1.732305E+06
 1.732410E+06  1.749508E+06  1.727432E+06  1.734390E+06  1.723055E+06  1.740093E+06  1.739209E+06  1.744915E+06  1.723238E+06  1.723749E+06
 1.736759E+06  1.729315E+06  1.723903E+06  1.716690E+06  1.711293E+06  1.707273E+06  1.713351E+06  1.706931E+06  1.731149E+06  1.731675E+06
 1.731185E+06  1.730611E+06  1.715852E+06  1.702944E+06  1.705366E+06  1.706896E+06  1.695768E+06  1.701202E+06  1.713102E+06  1.690947E+06
 1.691554E+06  1.711270E+06  1.693668E+06  1.706257E+06  1.690167E+06  1.682870E+06  1.693685E+06  1.679647E+06  1.695436E+06  1.692200E+06
 1.706721E+06  1.704531E+06  1.681664E+06  1.691526E+06  1.674578E+06  1.671939E+06  1.700118E+06  1.670266E+06  1.698863E+06  1.666200E+06
 1.683884E+06  1.674463E+06  1.663753E+06  1.666938E+06  1.668707E+06  1.663402E+06  1.659079E+06  1.668994E+06  1.656876E+06  1.661606E+06
 1.661664E+06  1.674252E+06  1.686401E+06  1.686917E+06  1.681683E+06  1.652863E+06  1.671038E+06  1.664509E+06  1.662050E+06  1.676059E+06
 1.650452E+06  1.644158E+06  1.647697E+06  1.642254E+06  1.675805E+06  1.678779E+06  1.667192E+06  1.645374E+06  1.641211E+06  1.637559E+06
 1.655066E+06  1.640955E+06  1.636305E+06  1.647062E+06  1.637561E+06  1.660725E+06  1.641322E+06  1.653436E+06  1.640441E+06  1.626834E+06
 1.632953E+06  1.639667E+06  1.623112E+06  1.625854E+06  1.650565E+06  1.622288E+06  1.636967E+06  1.662999E+06  1.622252E+06  1.645147E+06
 1.628262E+06  1.620259E+06  1.662358E+06  1.621015E+06  1.662719E+06  1.663113E+06  1.635694E+06  1.624191E+06  1.635592E+06  1.649574E+06
 1.621468E+06  1.659802E+06  1.659940E+06  1.625616E+06  1.609906E+06  1.611500E+06  1.621769E+06  1.610344E+06  1.616520E+06  1.647266E+06
 1.613645E+06  1.647208E+06  1.628326E+06  1.636105E+06  1.605376E+06  1.634226E+06  1.608608E+06  1.608626E+06  1.607412E+06  1.611080E+06
 1.600658E+06  1.644006E+06  1.601469E+06  1.621738E+06  1.616787E+06  1.603100E+06  1.605868E+06  1.612132E+06  1.602680E+06  1.633986E+06
 1.596389E+06  1.594792E+06  1.622216E+06  1.595500E+06  1.595134E+06  1.596404E+06  1.610884E+06  1.591449E+06  1.590811E+06  1.604449E+06
 1.612109E+06  1.590380E+06  1.604606E+06  1.599396E+06  1.624845E+06  1.595217E+06  1.592476E+06  1.613958E+06  1.583084E+06  1.585111E+06
 1.588721E+06  1.591017E+06  1.596660E+06  1.618984E+06  1.625550E+06  1.634455E+06  1.583990E+06  1.586001E+06  1.583260E+06  1.605524E+06
 1.592270E+06  1.583921E+06  1.581452E+06  1.578897E+06  1.583092E+06  1.610234E+06  1.596167E+06  1.579777E+06  1.624838E+06  1.583760E+06
 1.600056E+06  1.584919E+06  1.575048E+06  1.602350E+06  1.573615E+06  1.571280E+06  1.624520E+06  1.599681E+06  1.581814E+06  1.580234E+06
 1.592194E+06  1.576913E+06  1.586756E+06  1.572659E+06  1.625898E+06  1.584287E+06  1.587086E+06  1.570310E+06  1.567410E+06  1.567418E+06
 1.568483E+06  1.569444E+06  1.572794E+06  1.579666E+06  1.565527E+06  1.589269E+06  1.601297E+06  1.572199E+06  1.619874E+06  1.585073E+06
 1.613145E+06  1.570517E+06  1.566794E+06  1.564422E+06  1.613836E+06  1.561502E+06  1.574977E+06  1.561199E+06  1.560019E+06  1.603529E+06
 1.565926E+06  1.560877E+06  1.557612E+06  1.564855E+06  1.576976E+06  1.618247E+06  1.617684E+06  1.585686E+06  1.562211E+06  1.587474E+06
 1.555590E+06  1.603577E+06  1.562381E+06  1.559229E+06  1.564995E+06  1.559110E+06  1.565594E+06  1.557570E+06  1.570391E+06  1.578960E+06
 1.562338E+06  1.587900E+06  1.553333E+06  1.566508E+06  1.560443E+06  1.590951E+06  1.571865E+06  1.557456E+06  1.551549E+06  1.550565E+06
 1.548385E+06  1.593451E+06  1.585404E+06  1.561153E+06  1.548617E+06  1.561972E+06  1.557046E+06  1.553182E+06  1.555464E+06  1.547908E+06
 1.548332E+06  1.550164E+06  1.554887E+06  1.598234E+06  1.550823E+06  1.561945E+06  1.547967E+06  1.565029E+06  1.578959E+06  1.547187E+06
 1.567582E+06  1.547889E+06  1.546163E+06  1.547545E+06  1.544857E+06  1.549537E+06  1.550442E+06  1.549042E+06  1.584112E+06  1.569690E+06
 1.565667E+06  1.566753E+06  1.541600E+06  1.553911E+06  1.539795E+06  1.552349E+06  1.541121E+06  1.545700E+06  1.539970E+06  1.540850E+06
 1.557677E+06  1.538763E+06  1.569568E+06  1.549084E+06  1.547672E+06  1.542931E+06  1.540517E+06  1.573912E+06  1.537479E+06  1.555048E+06
 1.552373E+06  1.547294E+06  1.539826E+06  1.540684E+06  1.535670E+06  1.548466E+06  1.540313E+06  1.536136E+06  1.534969E+06  1.542525E+06
 1.565920E+06  1.542270E+06  1.540806E+06  1.542338E+06  1.539863E+06  1.541614E+06  1.553678E+06  1.544300E+06  1.561361E+06  1.531722E+06
 1.531569E+06  1.579485E+06  1.530657E+06  1.534624E+06  1.534024E+06  1.533487E+06  1.582275E+06  1.550676E+06  1.531139E+06  1.530309E+06
 1.530521E+06  1.571916E+06  1.556072E+06  1.529378E+06  1.570679E+06  1.535922E+06  1.547697E+06  1.538970E+06  1.534766E+06  1.530220E+06
 1.545996E+06  1.530402E+06  1.530394E+06  1.529040E+06  1.549904E+06  1.541964E+06  1.538617E+06  1.551542E+06  1.535644E+06  1.525507E+06
 1.531901E+06  1.527457E+06  1.533319E+06  1.584491E+06  1.541473E+06  1.529537E+06  1.527072E+06  1.527621E+06  1.578921E+06  1.529483E+06
 1.530509E+06  1.560456E+06  1.527897E+06  1.554147E+06  1.532097E+06  1.589139E+06  1.530870E+06  1.534809E+06  1.528379E+06  1.523888E+06
 1.537278E+06  1.559790E+06  1.541955E+06  1.527318E+06  1.540379E+06  1.528020E+06  1.563395E+06  1.593208E+06  1.593772E+06  1.521271E+06
 1.588657E+06  1.522288E+06  1.533773E+06  1.533682E+06  1.544862E+06  1.520684E+06  1.520118E+06  1.520655E+06  1.529096E+06  1.519598E+06
 1.519675E+06  1.582728E+06  1.590078E+06  1.529834E+06  1.521898E+06  1.528995E+06  1.519658E+06  1.519122E+06  1.527831E+06  1.568605E+06
 1.526946E+06  1.517824E+06  1.537554E+06  1.518399E+06  1.525569E+06  1.529125E+06  1.523723E+06  1.524710E+06  1.524007E+06  1.516979E+06
 1.519982E+06  1.590294E+06  1.590137E+06  1.550301E+06  1.549916E+06  1.531895E+06  1.543683E+06  1.519681E+06  1.523572E+06  1.519827E+06
 1.517573E+06  1.544405E+06  1.536552E+06  1.531790E+06  1.536870E+06  1.528077E+06  1.521778E+06  1.520257E+06  1.520752E+06  1.523497E+06
 1.517102E+06  1.515604E+06  1.539477E+06  1.522800E+06  1.516831E+06  1.520899E+06  1.517834E+06  1.516588E+06  1.518072E+06  1.529932E+06
 1.515292E+06  1.524254E+06  1.512865E+06  1.514539E+06  1.519827E+06  1.559285E+06  1.525357E+06  1.521334E+06  1.512168E+06  1.525468E+06
 1.513956E+06  1.512217E+06  1.524556E+06  1.515512E+06  1.511487E+06  1.511512E+06  1.527151E+06  1.518062E+06  1.571315E+06  1.509931E+06
 1.514807E+06  1.551290E+06  1.560012E+06  1.510831E+06  1.517471E+06  1.512246E+06  1.545685E+06  1.581057E+06  1.508924E+06  1.514413E+06
 1.508452E+06  1.508440E+06  1.514848E+06  1.508208E+06  1.552161E+06  1.564304E+06  1.514995E+06  1.525272E+06  1.512613E+06  1.519621E+06
 1.512050E+06  1.507570E+06  1.518266E+06  1.507242E+06  1.510936E+06  1.508558E+06  1.507680E+06  1.545436E+06  1.521736E+06  1.516634E+06
 1.517838E+06  1.538174E+06  1.510196E+06  1.536760E+06  1.532268E+06  1.513707E+06  1.528597E+06  1.524000E+06  1.511331E+06  1.515062E+06
 1.506303E+06  1.527345E+06  1.514981E+06  1.510309E+06  1.508153E+06  1.509821E+06  1.511670E+06  1.505306E+06  1.507832E+06  1.506214E+06
 1.510986E+06  1.513207E+06  1.505713E+06  1.504766E+06  1.506251E+06  1.506978E+06  1.507327E+06  1.516898E+06  1.506664E+06  1.529724E+06
 1.510796E+06  1.511664E+06  1.503312E+06  1.513524E+06  1.503641E+06  1.504227E+06  1.518075E+06  1.531848E+06  1.510637E+06  1.507283E+06
 1.522010E+06  1.504851E+06  1.536314E+06  1.501668E+06  1.503553E+06  1.516491E+06  1.514266E+06  1.536550E+06  1.525145E+06  1.514503E+06
 1.502402E+06  1.566707E+06  1.520604E+06  1.513173E+06  1.505105E+06  1.508396E+06  1.505251E+06  1.504780E+06  1.506524E+06  1.511684E+06
 1.516425E+06  1.501160E+06  1.505917E+06  1.503983E+06  1.501595E+06  1.510068E+06  1.504977E+06  1.507842E+06  1.498907E+06  1.503519E+06
 1.499043E+06  1.498703E+06  1.541084E+06  1.501338E+06  1.500284E+06  1.505148E+06  1.507552E+06  1.546741E+06  1.511499E+06  1.503428E+06
 1.499077E+06  1.498576E+06  1.500752E+06  1.504661E+06  1.510809E+06  1.501964E+06  1.500306E+06  1.500774E+06  1.551468E+06  1.504266E+06
 1.495785E+06  1.500417E+06  1.527086E+06  1.493975E+06  1.509624E+06  1.505113E+06  1.534184E+06  1.494513E+06  1.497929E+06  1.495703E+06
 1.513822E+06  1.494432E+06  1.494923E+06  1.500813E+06  1.507511E+06  1.514966E+06  1.493835E+06  1.510926E+06  1.506425E+06  1.533306E+06
 1.493586E+06  1.493695E+06  1.499169E+06  1.495551E+06  1.493296E+06  1.495567E+06  1.545531E+06  1.519500E+06  1.493674E+06  1.494378E+06
 1.494867E+06  1.506684E+06  1.496339E+06  1.513278E+06  1.492795E+06  1.516041E+06  1.503978E+06  1.507752E+06  1.492943E+06  1.519892E+06
 1.495726E+06  1.493982E+06  1.501248E+06  1.502876E+06  1.509033E+06  1.501787E+06  1.493946E+06  1.493506E+06  1.496092E+06  1.501124E+06
 1.497804E+06  1.498249E+06  1.502598E+06  1.553749E+06  1.498276E+06  1.509402E+06  1.497846E+06  1.499744E+06  1.491338E+06  1.536596E+06
 1.498546E+06  1.496378E+06  1.499064E+06  1.519733E+06  1.490700E+06  1.493227E+06  1.498362E+06  1.491403E+06  1.490222E+06  1.495435E+06
 1.514602E+06  1.493152E+06  1.496832E+06  1.490251E+06  1.490270E+06  1.502565E+06  1.495757E+06  1.494270E+06  1.525397E+06  1.491903E+06
 1.494189E+06  1.507090E+06  1.489222E+06  1.492184E+06  1.504914E+06  1.492342E+06  1.492622E+06  1.510604E+06  1.493087E+06  1.522829E+06
 1.488433E+06  1.488535E+06  1.488762E+06  1.488140E+06  1.487928E+06  1.488479E+06  1.501952E+06  1.499551E+06  1.500718E+06  1.491613E+06
 1.560097E+06  1.494725E+06  1.497471E+06  1.496716E+06  1.500495E+06  1.501415E+06  1.493325E+06  1.487841E+06  1.494874E+06  1.498525E+06
 1.488932E+06  1.488605E+06  1.486857E+06  1.492493E+06  1.496831E+06  1.488823E+06  1.487676E+06  1.486066E+06  1.491501E+06  1.488731E+06
 1.533739E+06  1.487984E+06  1.546054E+06  1.493974E+06  1.503934E+06  1.487446E+06  1.496816E+06  1.515854E+06  1.485254E+06  1.507659E+06
 1.492014E+06  1.486558E+06  1.485248E+06  1.488731E+06  1.491632E+06  1.510239E+06  1.493858E+06  1.490074E+06  1.504154E+06  1.496018E+06
 1.504860E+06  1.490013E+06  1.493590E+06  1.492216E+06  1.494830E+06  1.486948E+06  1.484968E+06  1.488818E+06  1.488965E+06  1.515850E+06
 1.538652E+06  1.485416E+06  1.493902E+06  1.486683E+06  1.484593E+06  1.484510E+06  1.491827E+06  1.485392E+06  1.500337E+06  1.502401E+06
 1.484328E+06  1.484732E+06  1.485323E+06  1.490813E+06  1.509606E+06  1.483763E+06  1.550538E+06  1.483968E+06  1.486547E+06  1.484467E+06
 1.498952E+06  1.483454E+06  1.485030E+06  1.483192E+06  1.485421E+06  1.524623E+06  1.483554E+06  1.486102E+06  1.482831E+06  1.485644E+06
 1.494704E+06  1.482919E+06  1.495844E+06  1.482860E+06  1.484494E+06  1.486638E+06  1.486832E+06  1.486969E+06  1.488032E+06  1.484788E+06
 1.484142E+06  1.482550E+06  1.489748E+06  1.482065E+06  1.486400E+06  1.482110E+06  1.501953E+06  1.481941E+06  1.484395E+06  1.483869E+06
 1.495838E+06  1.483695E+06  1.560264E+06  1.503753E+06  1.497686E+06  1.482416E+06  1.493248E+06  1.489815E+06  1.492604E+06  1.495238E+06
 1.486841E+06  1.509005E+06  1.481312E+06  1.493527E+06  1.489030E+06  1.480750E+06  1.480649E+06  1.497482E+06  1.481671E+06  1.480182E+06
 1.480338E+06  1.532466E+06  1.490689E+06  1.491171E+06  1.485335E+06  1.487162E+06  1.489203E+06  1.485657E+06  1.482264E+06  1.489026E+06
 1.486311E+06  1.479411E+06  1.521560E+06  1.499358E+06  1.494200E+06  1.514613E+06  1.484347E+06  1.482025E+06  1.483705E+06  1.485542E+06
 1.487022E+06  1.483040E+06  1.489156E+06  1.483165E+06  1.557114E+06  1.480962E+06  1.479845E+06  1.486901E+06  1.479100E+06  1.489577E+06
 1.506104E+06  1.561327E+06  1.511994E+06  1.549931E+06  1.523775E+06  1.546886E+06  1.532932E+06  1.529152E+06  1.502647E+06  1.535797E+06
 1.560430E+06  1.473939E+06  1.515973E+06  1.507593E+06  1.474263E+06  1.473651E+06  1.475617E+06  1.481492E+06  1.473855E+06  1.485044E+06
 1.472710E+06  1.476484E+06  1.472607E+06  1.476636E+06  1.490852E+06  1.473062E+06  1.480226E+06  1.473935E+06  1.473956E+06  1.476005E+06
 1.473628E+06  1.519215E+06  1.479888E+06  1.481078E+06  1.484226E+06  1.487908E+06  1.473955E+06  1.476973E+06  1.489221E+06  1.472962E+06
 1.501402E+06  1.493555E+06  1.475960E+06  1.477203E+06  1.471977E+06  1.476207E+06  1.486444E+06  1.482152E+06  1.477249E+06  1.498356E+06
 1.491991E+06  1.495443E+06  1.485340E+06  1.472268E+06  1.472059E+06  1.471500E+06  1.483001E+06  1.476177E+06  1.471979E+06  1.473065E+06
 1.472317E+06  1.477010E+06  1.471226E+06  1.478407E+06  1.471784E+06  1.493112E+06  1.477545E+06  1.473719E+06  1.474048E+06  1.557904E+06
 1.474672E+06  1.477177E+06  1.470945E+06  1.476564E+06  1.483753E+06  1.496917E+06  1.473088E+06  1.479514E+06  1.475692E+06  1.480558E+06
 1.487918E+06  1.472057E+06  1.471924E+06  1.481377E+06  1.470585E+06  1.471275E+06  1.471511E+06  1.472028E+06  1.470467E+06  1.490756E+06
 1.472645E+06  1.477806E+06  1.473715E+06  1.472976E+06  1.484892E+06  1.552960E+06  1.469931E+06  1.470574E+06  1.479763E+06  1.480207E+06
 1.488904E+06  1.470504E+06  1.474583E+06  1.486872E+06  1.469858E+06  1.471798E+06  1.521340E+06  1.469674E+06  1.474064E+06  1.469941E+06
 1.508150E+06  1.503162E+06  1.470102E+06  1.473344E+06  1.474010E+06  1.483644E+06  1.472716E+06  1.485664E+06  1.488616E+06  1.477919E+06
 1.470498E+06  1.475564E+06  1.476629E+06  1.482153E+06  1.469664E+06  1.475991E+06  1.474364E+06  1.470406E+06  1.478445E+06  1.469963E+06
 1.469463E+06  1.468813E+06  1.468930E+06  1.484858E+06  1.502447E+06  1.556738E+06  1.556035E+06  1.477001E+06  1.472636E+06  1.470262E+06
 1.471042E+06  1.476754E+06  1.470267E+06  1.478496E+06  1.469286E+06  1.473329E+06  1.480754E+06  1.492575E+06  1.472598E+06  1.469620E+06
 1.468499E+06  1.493237E+06  1.498061E+06  1.469473E+06  1.475801E+06  1.470229E+06  1.478111E+06  1.477270E+06  1.474920E+06  1.529061E+06
 1.468512E+06  1.473707E+06  1.516962E+06  1.498298E+06  1.469319E+06  1.483347E+06  1.469521E+06  1.473750E+06  1.480780E+06  1.522607E+06
 1.481647E+06  1.472749E+06  1.479350E+06  1.488991E+06  1.476166E+06  1.468621E+06  1.468369E+06  1.478720E+06  1.467399E+06  1.494071E+06
 1.507986E+06  1.471199E+06  1.478282E+06  1.533090E+06  1.469617E+06  1.467784E+06  1.468847E+06  1.473730E+06  1.467185E+06  1.466986E+06
 1.470209E+06  1.467283E+06  1.490174E+06  1.479058E+06  1.485060E+06  1.466757E+06  1.481573E+06  1.494235E+06  1.466795E+06  1.469320E+06
 1.466528E+06  1.466965E+06  1.470799E+06  1.467687E+06  1.470955E+06  1.485427E+06  1.474651E+06  1.466114E+06  1.470167E+06  1.476664E+06
 1.475558E+06  1.468392E+06  1.485767E+06  1.476421E+06  1.465774E+06  1.467325E+06  1.470465E+06  1.469303E+06  1.471364E+06  1.531710E+06
 1.487633E+06  1.468330E+06  1.465374E+06  1.469710E+06  1.465454E+06  1.473792E+06  1.489144E+06  1.468956E+06  1.466167E+06  1.465800E+06
 1.472611E+06  1.467307E+06  1.465146E+06  1.482473E+06  1.465400E+06  1.465864E+06  1.471444E+06  1.466338E+06  1.467345E+06  1.464874E+06
 1.465046E+06  1.474204E+06  1.467982E+06  1.470437E+06  1.506480E+06  1.464205E+06  1.512357E+06  1.534248E+06  1.468936E+06  1.496420E+06
 1.481449E+06  1.517954E+06  1.464073E+06  1.463405E+06  1.463507E+06  1.463906E+06  1.499141E+06  1.470831E+06  1.467052E+06  1.477994E+06
 1.488557E+06  1.463253E+06  1.472674E+06  1.469148E+06  1.471219E+06  1.491957E+06  1.467524E+06  1.518416E+06  1.512367E+06  1.537719E+06
 1.484173E+06  1.500267E+06  1.474774E+06  1.478615E+06  1.467898E+06  1.477552E+06  1.463699E+06  1.467478E+06  1.469057E+06  1.461486E+06
 1.461344E+06  1.465245E+06  1.463978E+06  1.475716E+06  1.480490E+06  1.462853E+06  1.461171E+06  1.475304E+06  1.465891E+06  1.491752E+06
 1.460708E+06  1.471567E+06  1.460319E+06  1.462375E+06  1.460385E+06  1.467477E+06  1.460106E+06  1.465945E+06  1.530868E+06  1.461544E+06
 1.459916E+06  1.472572E+06  1.461641E+06  1.460565E+06  1.504577E+06  1.464684E+06  1.480387E+06  1.477850E+06  1.462844E+06  1.459448E+06
 1.468035E+06  1.460332E+06  1.459721E+06  1.460657E+06  1.462718E+06  1.468685E+06  1.461689E+06  1.471978E+06  1.472549E+06  1.458774E+06
 1.464301E+06  1.494104E+06  1.459775E+06  1.486908E+06  1.459153E+06  1.461223E+06  1.458480E+06  1.465930E+06  1.481147E+06  1.457185E+06
 1.483724E+06  1.463896E+06  1.479057E+06  1.506391E+06  1.461794E+06  1.460938E+06  1.462180E+06  1.468067E+06  1.500235E+06  1.464212E+06
 1.469384E+06  1.514483E+06  1.482684E+06  1.486182E+06  1.459166E+06  1.536321E+06  1.494333E+06  1.465553E+06  1.455913E+06  1.457638E+06
 1.489301E+06  1.456029E+06  1.457371E+06  1.466135E+06  1.520909E+06  1.458080E+06  1.473611E+06  1.456119E+06  1.455286E+06  1.454766E+06
 1.459222E+06  1.455391E+06  1.455072E+06  1.474717E+06  1.460584E+06  1.460318E+06  1.454645E+06  1.462073E+06  1.477634E+06  1.453818E+06
 1.460823E+06  1.454273E+06  1.453963E+06  1.474590E+06  1.455512E+06  1.527998E+06  1.463080E+06  1.456427E+06  1.470544E+06  1.495012E+06
 1.466057E+06  1.461561E+06  1.455430E+06  1.468933E+06  1.454368E+06  1.453484E+06  1.453707E+06  1.455185E+06  1.452677E+06  1.459228E+06
 1.470359E+06  1.456395E+06  1.504380E+06  1.452731E+06  1.466436E+06  1.461677E+06  1.455533E+06  1.508210E+06  1.459145E+06  1.535199E+06
 1.451809E+06  1.462541E+06  1.467684E+06  1.480616E+06  1.460009E+06  1.484600E+06  1.452682E+06  1.500053E+06  1.513174E+06  1.456722E+06
 1.456243E+06  1.454163E+06  1.451760E+06  1.454490E+06  1.476393E+06  1.496073E+06  1.465108E+06  1.473136E+06  1.486503E+06  1.462114E+06
 1.450747E+06  1.461358E+06  1.475393E+06  1.451665E+06  1.459961E+06  1.448557E+06  1.448969E+06  1.532178E+06  1.489403E+06  1.480320E+06
 1.518839E+06  1.478175E+06  1.448302E+06  1.467346E+06  1.453992E+06  1.483704E+06  1.532981E+06  1.532490E+06  1.452379E+06  1.447164E+06
 1.446988E+06  1.448016E+06  1.454006E+06  1.450341E+06  1.451650E+06  1.446645E+06  1.446756E+06  1.467146E+06  1.506583E+06  1.467946E+06
 1.532735E+06  1.533367E+06  1.470388E+06  1.454553E+06  1.447212E+06  1.448479E+06  1.446508E+06  1.456670E+06  1.452588E+06  1.455515E+06
 1.447045E+06  1.523669E+06  1.450553E+06  1.445270E+06  1.447008E+06  1.445679E+06  1.444871E+06  1.452645E+06  1.447713E+06  1.459141E+06
 1.443953E+06  1.462862E+06  1.493021E+06  1.446715E+06  1.453320E+06  1.473835E+06  1.455839E+06  1.447763E+06  1.454469E+06  1.506012E+06
 1.459423E+06  1.443568E+06  1.484576E+06  1.455499E+06  1.492457E+06  1.495998E+06  1.457288E+06  1.447397E+06  1.517513E+06  1.445329E+06
 1.508504E+06  1.443051E+06  1.460517E+06  1.479505E+06  1.475655E+06  1.464687E+06  1.448825E+06  1.443228E+06  1.483472E+06  1.466703E+06
 1.440161E+06  1.439937E+06  1.445833E+06  1.440777E+06  1.441905E+06  1.440128E+06  1.467980E+06  1.443836E+06  1.462132E+06  1.452261E+06
 1.438111E+06  1.442738E+06  1.496639E+06  1.472488E+06  1.458867E+06  1.437664E+06  1.437592E+06  1.440170E+06  1.436946E+06  1.440564E+06
 1.446824E+06  1.436551E+06  1.466169E+06  1.436437E+06  1.439842E+06  1.440313E+06  1.443482E+06  1.438026E+06  1.447135E+06  1.449118E+06
 1.435695E+06  1.443777E+06  1.450918E+06  1.437047E+06  1.481395E+06  1.515729E+06  1.442369E+06  1.492823E+06  1.452438E+06  1.445578E+06
 1.449418E+06  1.452758E+06  1.480228E+06  1.434715E+06  1.466371E+06  1.456910E+06  1.471751E+06  1.438056E+06  1.431026E+06  1.502615E+06
 1.453655E+06  1.434146E+06  1.469846E+06  1.457156E+06  1.431676E+06  1.430331E+06  1.494137E+06  1.480226E+06  1.461961E+06  1.431857E+06
 1.434075E+06  1.428497E+06  1.442747E+06  1.428559E+06  1.434643E+06  1.429412E+06  1.440126E+06  1.428181E+06  1.432182E+06  1.437307E+06
 1.500830E+06  1.456122E+06  1.448562E+06  1.430227E+06  1.508805E+06  1.480297E+06  1.426057E+06  1.426626E+06  1.444181E+06  1.434059E+06
 1.488785E+06  1.434116E+06  1.436553E+06  1.470221E+06  1.510335E+06  1.425854E+06  1.459624E+06  1.437757E+06  1.510944E+06  1.441016E+06
 1.444527E+06  1.424736E+06  1.447159E+06  1.458519E+06  1.478549E+06  1.466208E+06  1.419706E+06  1.425196E+06  1.426425E+06  1.425861E+06
 1.420618E+06  1.427470E+06  1.497267E+06  1.420285E+06  1.448979E+06  1.430209E+06  1.444546E+06  1.508481E+06  1.505732E+06  1.418492E+06
 1.422322E+06  1.427316E+06  1.432078E+06  1.459546E+06  1.417090E+06  1.424606E+06  1.415928E+06  1.417975E+06  1.434105E+06  1.437396E+06
 1.414816E+06  1.463955E+06  1.446249E+06  1.477013E+06  1.468139E+06  1.416398E+06  1.424366E+06  1.451091E+06  1.416207E+06  1.447471E+06
 1.477677E+06  1.426159E+06  1.420955E+06  1.494034E+06  1.492354E+06  1.431948E+06  1.435592E+06  1.428466E+06  1.412352E+06  1.413391E+06
 1.479846E+06  1.416617E+06  1.410623E+06  1.452754E+06  1.437399E+06  1.462537E+06  1.407801E+06  1.413248E+06  1.408163E+06  1.406698E+06
 1.418688E+06  1.447257E+06  1.419991E+06  1.405883E+06  1.494847E+06  1.422218E+06  1.409499E+06  1.406852E+06  1.412207E+06  1.429708E+06
 1.479482E+06  1.425773E+06  1.435725E+06  1.410625E+06  1.462079E+06  1.450900E+06  1.434154E+06  1.460012E+06  1.447253E+06  1.403405E+06
 1.410924E+06  1.413800E+06  1.404252E+06  1.402262E+06  1.477376E+06  1.436958E+06  1.419276E+06  1.400054E+06  1.399028E+06  1.487626E+06
 1.400481E+06  1.415411E+06  1.425460E+06  1.403756E+06  1.397572E+06  1.490505E+06  1.489671E+06  1.491986E+06  1.493106E+06  1.396923E+06
 1.464169E+06  1.405586E+06  1.446733E+06  1.462160E+06  1.437614E+06  1.421868E+06  1.432682E+06  1.394848E+06  1.400874E+06  1.405276E+06
 1.398089E+06  1.413899E+06  1.395177E+06  1.406857E+06  1.422756E+06  1.422593E+06  1.476070E+06  1.396930E+06  1.401807E+06  1.393322E+06
 1.390336E+06  1.410925E+06  1.441944E+06  1.391266E+06  1.390161E+06  1.389127E+06  1.446757E+06  1.449616E+06  1.388259E+06  1.475947E+06
 1.389225E+06  1.403588E+06  1.430599E+06  1.422908E+06  1.463012E+06  1.390258E+06  1.411117E+06  1.394727E+06  1.409710E+06  1.478539E+06
 1.384124E+06  1.419616E+06  1.389803E+06  1.382903E+06  1.433256E+06  1.425705E+06  1.464011E+06  1.455207E+06  1.390576E+06  1.381334E+06
 1.394222E+06  1.394433E+06  1.385607E+06  1.444924E+06  1.410379E+06  1.383892E+06  1.399582E+06  1.379980E+06  1.409623E+06  1.382068E+06
 1.396737E+06  1.379477E+06  1.381654E+06  1.379981E+06  1.384542E+06  1.447228E+06  1.399521E+06  1.427742E+06  1.437042E+06  1.377415E+06
 1.415884E+06  1.389996E+06  1.414375E+06  1.385288E+06  1.474583E+06  1.420971E+06  1.375053E+06  1.398722E+06  1.406808E+06  1.429611E+06
 1.373358E+06  1.381332E+06  1.385140E+06  1.378722E+06  1.459062E+06  1.376600E+06  1.406035E+06  1.400266E+06  1.394296E+06  1.374505E+06
 1.371307E+06  1.376689E+06  1.370876E+06  1.385467E+06  1.415176E+06  1.370279E+06  1.377469E+06  1.389209E+06  1.380873E+06  1.371322E+06
 1.369380E+06  1.475241E+06  1.434439E+06  1.450709E+06  1.386079E+06  1.377589E+06  1.370756E+06  1.396734E+06  1.366932E+06  1.371263E+06
 1.447646E+06  1.459098E+06  1.433643E+06  1.368170E+06  1.369930E+06  1.372396E+06  1.371478E+06  1.462306E+06  1.418541E+06  1.402174E+06
 1.408201E+06  1.365519E+06  1.388122E+06  1.379075E+06  1.401641E+06  1.477382E+06  1.474987E+06  1.381345E+06  1.464092E+06  1.412088E+06
 1.403405E+06  1.438160E+06  1.373354E+06  1.374185E+06  1.389484E+06  1.362555E+06  1.368241E+06  1.387862E+06  1.394035E+06  1.375878E+06
 1.420666E+06  1.365834E+06  1.363492E+06  1.435920E+06  1.362462E+06  1.368573E+06  1.413193E+06  1.360806E+06  1.360666E+06  1.391452E+06
 1.359536E+06  1.359651E+06  1.359421E+06  1.464241E+06  1.379365E+06  1.380635E+06  1.362245E+06  1.364068E+06  1.416949E+06  1.371198E+06
 1.367361E+06  1.406302E+06  1.359615E+06  1.373745E+06  1.368485E+06  1.399583E+06  1.357850E+06  1.357270E+06  1.363776E+06  1.384688E+06
 1.358680E+06  1.360494E+06  1.366567E+06  1.399820E+06  1.371551E+06  1.358087E+06  1.380408E+06  1.360931E+06  1.390334E+06  1.358912E+06
 1.421597E+06  1.356052E+06  1.408302E+06  1.376764E+06  1.426038E+06  1.392889E+06  1.473286E+06  1.356962E+06  1.374066E+06  1.367909E+06
 1.378190E+06  1.365223E+06  1.416872E+06  1.370657E+06  1.359582E+06  1.400041E+06  1.380940E+06  1.361955E+06  1.436566E+06  1.353189E+06
 1.354206E+06  1.386496E+06  1.371028E+06  1.365475E+06  1.352680E+06  1.446821E+06  1.445583E+06  1.382792E+06  1.389958E+06  1.356522E+06
 1.402418E+06  1.409979E+06  1.357587E+06  1.350783E+06  1.367035E+06  1.350928E+06  1.351047E+06  1.349727E+06  1.351596E+06  1.433211E+06
 1.349192E+06  1.350129E+06  1.354937E+06  1.358947E+06  1.356996E+06  1.378928E+06  1.390657E+06  1.363832E+06  1.360679E+06  1.348974E+06
 1.358250E+06  1.352159E+06  1.349489E+06  1.403437E+06  1.395595E+06  1.358731E+06  1.422527E+06  1.369134E+06  1.367155E+06  1.350094E+06
 1.352009E+06  1.386979E+06  1.381119E+06  1.370841E+06  1.352439E+06  1.347140E+06  1.375628E+06  1.389556E+06  1.348360E+06  1.349037E+06
 1.349235E+06  1.371596E+06  1.352433E+06  1.450111E+06  1.366335E+06  1.357565E+06  1.359325E+06  1.363947E+06  1.358362E+06  1.346943E+06
 1.397574E+06  1.360180E+06  1.375124E+06  1.370419E+06  1.410414E+06  1.424159E+06  1.379728E+06  1.344309E+06  1.389123E+06  1.347944E+06
 1.414283E+06  1.359508E+06  1.344430E+06  1.379207E+06  1.343670E+06  1.459852E+06  1.342904E+06  1.400925E+06  1.344868E+06  1.365838E+06
 1.343105E+06  1.349459E+06  1.351715E+06  1.359362E+06  1.350427E+06  1.347651E+06  1.344037E+06  1.341608E+06  1.341526E+06  1.381280E+06
 1.400118E+06  1.404378E+06  1.372847E+06  1.351268E+06  1.345795E+06  1.341137E+06  1.389288E+06  1.379181E+06  1.346544E+06  1.367201E+06
 1.360172E+06  1.343138E+06  1.341072E+06  1.448164E+06  1.362126E+06  1.339865E+06  1.351291E+06  1.343623E+06  1.353683E+06  1.368529E+06
 1.339487E+06  1.340356E+06  1.347979E+06  1.367362E+06  1.339039E+06  1.340656E+06  1.346262E+06  1.350504E+06  1.348868E+06  1.379613E+06
 1.370146E+06  1.361950E+06  1.428488E+06  1.359115E+06  1.356134E+06  1.362959E+06  1.343198E+06  1.386328E+06  1.355602E+06  1.458678E+06
 1.339039E+06  1.341697E+06  1.380306E+06  1.338166E+06  1.338602E+06  1.340584E+06  1.339099E+06  1.336871E+06  1.349694E+06  1.342452E+06
 1.339070E+06  1.337523E+06  1.351133E+06  1.380176E+06  1.338900E+06  1.387543E+06  1.345195E+06  1.348763E+06  1.355611E+06  1.357154E+06
 1.342472E+06  1.337927E+06  1.419744E+06  1.410036E+06  1.389150E+06  1.371603E+06  1.338780E+06  1.435288E+06  1.350877E+06  1.336678E+06
 1.334548E+06  1.396175E+06  1.337223E+06  1.367519E+06  1.337496E+06  1.344663E+06  1.370611E+06  1.359656E+06  1.334566E+06  1.338933E+06
 1.428143E+06  1.334265E+06  1.367319E+06  1.338496E+06  1.449636E+06  1.348810E+06  1.339671E+06  1.360511E+06  1.341232E+06  1.349884E+06
 1.340018E+06  1.353537E+06  1.335087E+06  1.351858E+06  1.388292E+06  1.356901E+06  1.335683E+06  1.338586E+06  1.341311E+06  1.410448E+06
 1.398657E+06  1.349693E+06  1.362118E+06  1.371035E+06  1.357538E+06  1.400969E+06  1.341745E+06  1.369952E+06  1.353045E+06  1.342820E+06
 1.331695E+06  1.349115E+06  1.331524E+06  1.331668E+06  1.359024E+06  1.390026E+06  1.344606E+06  1.330898E+06  1.360632E+06  1.334861E+06
 1.354791E+06  1.353492E+06  1.353133E+06  1.330874E+06  1.334731E+06  1.331505E+06  1.331761E+06  1.331165E+06  1.331682E+06  1.371737E+06
 1.375172E+06  1.361854E+06  1.357198E+06  1.331906E+06  1.341308E+06  1.348203E+06  1.339560E+06  1.343313E+06  1.370110E+06  1.331348E+06
 1.432614E+06  1.337202E+06  1.331724E+06  1.329746E+06  1.359644E+06  1.329250E+06  1.328975E+06  1.330801E+06  1.337549E+06  1.330933E+06
 1.334125E+06  1.341037E+06  1.379113E+06  1.343395E+06  1.344820E+06  1.334455E+06  1.331139E+06  1.333150E+06  1.332124E+06  1.361552E+06
 1.333561E+06  1.331034E+06  1.448130E+06  1.363008E+06  1.339887E+06  1.328691E+06  1.334285E+06  1.338013E+06  1.371800E+06  1.347628E+06
 1.329542E+06  1.327242E+06  1.328358E+06  1.331959E+06  1.330976E+06  1.337986E+06  1.334675E+06  1.373820E+06  1.327103E+06  1.327366E+06
 1.352307E+06  1.339795E+06  1.377989E+06  1.414949E+06  1.345814E+06  1.348366E+06  1.329707E+06  1.342514E+06  1.353281E+06  1.386374E+06