# vtk DataFile Version 2.0
PFLOTRAN output
ASCII
DATASET UNSTRUCTURED_GRID
CELL_DATA   14538
SCALARS Liquid_Pressure      float 1
LOOKUP_TABLE default
 2.000000E+06  2.000000E+06  2.000000E+06  2.000000E+06  2.000000E+06  2.000000E+06  2.000000E+06  2.000000E+06  2.000000E+06  2.000000E+06
 2.000000E+06  2.000000E+06  2.000000E+06  2.000000E+06  2.000000E+06  2.000000E+06  2.000000E+06  2.000000E+06  1.967786E+06  1.958912E+06
 1.955453E+06  1.956821E+06  1.955260E+06  1.958683E+06  1.953076E+06  1.950664E+06  1.951458E+06  1.949792E+06  1.950644E+06  1.947138E+06
 1.942465E+06  1.942785E+06  1.934945E+06  1.925123E+06  1.928779E+06  1.918374E+06  1.918509E+06  1.904324E+06  1.905371E+06  1.906965E+06
 1.903575E+06  1.901967E+06  1.894240E+06  1.896141E+06  1.900495E+06  1.893888E+06  1.905767E+06  1.887857E+06  1.886182E+06  1.889679E+06
 1.887358E+06  1.877091E+06  1.866938E+06  1.869667E+06  1.865414E+06  1.860739E+06  1.858463E+06  1.856917E+06  1.853758E+06  1.848883E+06
 1.850041E+06  1.847153E+06  1.845265E+06  1.839202E+06  1.842356E+06  1.829885E+06  1.830469E+06  1.830498E+06  1.831393E+06  1.825670E+06
 1.820989E+06  1.817539E+06  1.804702E+06  1.800807E+06  1.806419E+06  1.810294E+06  1.800392E+06  1.795210E+06  1.796395E+06  1.794940E+06
 1.797910E+06  1.792982E+06  1.796546E+06  1.789637E+06  1.791072E+06  1.776485E+06  1.774752E+06  1.771400E+06  1.769092E+06  1.766582E+06
 1.763905E+06  1.766249E+06  1.759406E+06  1.764801E+06  1.748687E+06  1.752836E+06  1.747425E+06  1.759494E+06  1.753260E+06  1.758300E+06
 1.753456E+06  1.755059E+06  1.746104E+06  1.737490E+06  1.738621E+06  1.722748E+06  1.721978E+06  1.729415E+06  1.732294E+06  1.722711E+06
 1.724282E+06  1.713566E+06  1.710900E+06  1.723611E+06  1.709437E+06  1.710844E+06  1.711113E+06  1.717272E+06  1.707199E+06  1.713461E+06
 1.691093E+06  1.694876E+06  1.690757E+06  1.694876E+06  1.699763E+06  1.693466E+06  1.709249E+06  1.710618E+06  1.682424E+06  1.675997E+06
 1.676420E+06  1.694865E+06  1.670643E+06  1.677579E+06  1.665525E+06  1.683991E+06  1.682492E+06  1.689185E+06  1.665019E+06  1.665779E+06
 1.679186E+06  1.671616E+06  1.665574E+06  1.657675E+06  1.651677E+06  1.646731E+06  1.653073E+06  1.646468E+06  1.672313E+06  1.672856E+06
 1.672699E+06  1.672087E+06  1.655446E+06  1.641834E+06  1.644543E+06  1.645836E+06  1.633519E+06  1.639285E+06  1.651819E+06  1.627896E+06
 1.628201E+06  1.649768E+06  1.630231E+06  1.644198E+06  1.626510E+06  1.618436E+06  1.629733E+06  1.614677E+06  1.632045E+06  1.628535E+06
 1.644155E+06  1.641330E+06  1.616777E+06  1.627200E+06  1.608629E+06  1.605652E+06  1.635756E+06  1.603494E+06  1.634744E+06  1.599095E+06
 1.617916E+06  1.607586E+06  1.596135E+06  1.599496E+06  1.601359E+06  1.595656E+06  1.590814E+06  1.601739E+06  1.588276E+06  1.592927E+06
 1.593455E+06  1.606861E+06  1.619551E+06  1.620646E+06  1.614739E+06  1.583581E+06  1.603504E+06  1.595754E+06  1.593474E+06  1.608704E+06
 1.580606E+06  1.573557E+06  1.577428E+06  1.571318E+06  1.608141E+06  1.610892E+06  1.598160E+06  1.574504E+06  1.570024E+06  1.565969E+06
 1.585212E+06  1.569548E+06  1.564531E+06  1.575997E+06  1.565878E+06  1.591332E+06  1.569678E+06  1.582696E+06  1.568894E+06  1.553586E+06
 1.559921E+06  1.567780E+06  1.549240E+06  1.552347E+06  1.579080E+06  1.548371E+06  1.564191E+06  1.592715E+06  1.548347E+06  1.573565E+06
 1.554998E+06  1.546074E+06  1.592274E+06  1.546725E+06  1.591937E+06  1.592467E+06  1.562496E+06  1.550200E+06  1.562926E+06  1.578184E+06
 1.546969E+06  1.589085E+06  1.589300E+06  1.551779E+06  1.534192E+06  1.535871E+06  1.546979E+06  1.534714E+06  1.541191E+06  1.574780E+06
 1.538308E+06  1.575170E+06  1.554428E+06  1.562945E+06  1.528950E+06  1.560436E+06  1.532631E+06  1.532427E+06  1.531105E+06  1.535264E+06
 1.523598E+06  1.571250E+06  1.524509E+06  1.546382E+06  1.541478E+06  1.526050E+06  1.528938E+06  1.536282E+06  1.525749E+06  1.559695E+06
 1.518740E+06  1.516921E+06  1.547239E+06  1.517616E+06  1.517137E+06  1.518668E+06  1.534202E+06  1.513028E+06  1.512400E+06  1.527129E+06
 1.536012E+06  1.511902E+06  1.527182E+06  1.521493E+06  1.549870E+06  1.516942E+06  1.513889E+06  1.537275E+06  1.503591E+06  1.505853E+06
 1.509708E+06  1.512095E+06  1.518715E+06  1.542720E+06  1.550420E+06  1.559395E+06  1.504578E+06  1.506801E+06  1.503649E+06  1.528380E+06
 1.513788E+06  1.504301E+06  1.501726E+06  1.498807E+06  1.503259E+06  1.533394E+06  1.518047E+06  1.499632E+06  1.548740E+06  1.504211E+06
 1.521759E+06  1.505110E+06  1.494457E+06  1.524177E+06  1.492764E+06  1.490169E+06  1.548119E+06  1.521591E+06  1.501519E+06  1.500169E+06
 1.513455E+06  1.496200E+06  1.507426E+06  1.491696E+06  1.550155E+06  1.504196E+06  1.507256E+06  1.488915E+06  1.485798E+06  1.485806E+06
 1.486910E+06  1.488084E+06  1.491605E+06  1.499031E+06  1.483666E+06  1.510038E+06  1.522759E+06  1.490811E+06  1.543433E+06  1.504891E+06
 1.535552E+06  1.488861E+06  1.484844E+06  1.482216E+06  1.536799E+06  1.478970E+06  1.494152E+06  1.478763E+06  1.477380E+06  1.525532E+06
 1.484037E+06  1.478376E+06  1.474692E+06  1.482583E+06  1.496310E+06  1.540709E+06  1.540679E+06  1.505868E+06  1.479856E+06  1.507390E+06
 1.472387E+06  1.524899E+06  1.479751E+06  1.476304E+06  1.482560E+06  1.476127E+06  1.483587E+06  1.474451E+06  1.488474E+06  1.497902E+06
 1.479599E+06  1.508172E+06  1.469871E+06  1.484153E+06  1.477806E+06  1.511466E+06  1.490476E+06  1.474458E+06  1.467767E+06  1.466676E+06
 1.464254E+06  1.513640E+06  1.504900E+06  1.478199E+06  1.464541E+06  1.479087E+06  1.473682E+06  1.469669E+06  1.471930E+06  1.463746E+06
 1.464224E+06  1.466274E+06  1.471227E+06  1.519281E+06  1.466807E+06  1.479405E+06  1.463812E+06  1.482403E+06  1.498174E+06  1.462776E+06
 1.485213E+06  1.463719E+06  1.461652E+06  1.463160E+06  1.460198E+06  1.465339E+06  1.466304E+06  1.464754E+06  1.503259E+06  1.487904E+06
 1.483452E+06  1.484221E+06  1.456583E+06  1.470397E+06  1.454560E+06  1.468305E+06  1.456098E+06  1.461227E+06  1.454734E+06  1.455649E+06
 1.474557E+06  1.453430E+06  1.487258E+06  1.464660E+06  1.463098E+06  1.458119E+06  1.455413E+06  1.492021E+06  1.451964E+06  1.471237E+06
 1.468275E+06  1.462990E+06  1.454450E+06  1.455399E+06  1.449938E+06  1.463920E+06  1.454964E+06  1.450398E+06  1.449170E+06  1.457384E+06
 1.483595E+06  1.457075E+06  1.455472E+06  1.457128E+06  1.454439E+06  1.456620E+06  1.470031E+06  1.459613E+06  1.478098E+06  1.445513E+06
 1.445330E+06  1.498465E+06  1.444281E+06  1.448783E+06  1.447947E+06  1.447331E+06  1.501439E+06  1.466272E+06  1.444747E+06  1.443852E+06
 1.444068E+06  1.489626E+06  1.472652E+06  1.442886E+06  1.488743E+06  1.450235E+06  1.462971E+06  1.453321E+06  1.448697E+06  1.443839E+06
 1.461465E+06  1.443889E+06  1.444034E+06  1.442512E+06  1.465374E+06  1.456965E+06  1.452897E+06  1.467159E+06  1.449606E+06  1.438484E+06
 1.445505E+06  1.440595E+06  1.447042E+06  1.503052E+06  1.456042E+06  1.442879E+06  1.440304E+06  1.440922E+06  1.497063E+06  1.442802E+06
 1.443932E+06  1.476980E+06  1.441049E+06  1.470448E+06  1.445658E+06  1.508010E+06  1.444312E+06  1.448646E+06  1.441775E+06  1.436652E+06
 1.451369E+06  1.476650E+06  1.456919E+06  1.440382E+06  1.454796E+06  1.441374E+06  1.480157E+06  1.512269E+06  1.512831E+06  1.433722E+06
 1.508094E+06  1.434931E+06  1.447799E+06  1.447360E+06  1.460132E+06  1.433094E+06  1.432478E+06  1.433016E+06  1.442276E+06  1.431883E+06
 1.431976E+06  1.501626E+06  1.509509E+06  1.443399E+06  1.434506E+06  1.442152E+06  1.431883E+06  1.431368E+06  1.441161E+06  1.485717E+06
 1.439878E+06  1.429878E+06  1.451617E+06  1.430562E+06  1.438630E+06  1.442279E+06  1.436329E+06  1.437402E+06  1.436629E+06  1.428921E+06
 1.432190E+06  1.509581E+06  1.509446E+06  1.466108E+06  1.465255E+06  1.445338E+06  1.458788E+06  1.431842E+06  1.436120E+06  1.432192E+06
 1.429529E+06  1.459161E+06  1.450864E+06  1.445565E+06  1.450830E+06  1.441099E+06  1.434142E+06  1.432464E+06  1.433009E+06  1.436311E+06
 1.428989E+06  1.427345E+06  1.453706E+06  1.435247E+06  1.428670E+06  1.433402E+06  1.429766E+06  1.428556E+06  1.430024E+06  1.443135E+06
 1.427095E+06  1.436843E+06  1.424316E+06  1.426257E+06  1.431943E+06  1.475440E+06  1.438050E+06  1.433590E+06  1.423515E+06  1.438166E+06
 1.425614E+06  1.423645E+06  1.437490E+06  1.427371E+06  1.422823E+06  1.422747E+06  1.440021E+06  1.429947E+06  1.489003E+06  1.421065E+06
 1.426351E+06  1.466658E+06  1.476720E+06  1.421959E+06  1.429280E+06  1.423707E+06  1.460487E+06  1.498697E+06  1.419945E+06  1.425901E+06
 1.419394E+06  1.419354E+06  1.426381E+06  1.419130E+06  1.468077E+06  1.481365E+06  1.426535E+06  1.438282E+06  1.423907E+06  1.431654E+06
 1.423283E+06  1.418374E+06  1.430148E+06  1.418033E+06  1.422049E+06  1.419558E+06  1.418486E+06  1.460651E+06  1.433998E+06  1.428337E+06
 1.429992E+06  1.452195E+06  1.421215E+06  1.451052E+06  1.446067E+06  1.425088E+06  1.441984E+06  1.436501E+06  1.422462E+06  1.426889E+06
 1.416929E+06  1.440208E+06  1.426489E+06  1.421561E+06  1.418945E+06  1.420782E+06  1.423091E+06  1.415824E+06  1.418576E+06  1.416809E+06
 1.422063E+06  1.424517E+06  1.416258E+06  1.415299E+06  1.416826E+06  1.417810E+06  1.418017E+06  1.428611E+06  1.417467E+06  1.442832E+06
 1.422121E+06  1.423095E+06  1.413626E+06  1.425176E+06  1.414034E+06  1.414569E+06  1.429915E+06  1.445177E+06  1.421658E+06  1.417945E+06
 1.434281E+06  1.415430E+06  1.450541E+06  1.411795E+06  1.413829E+06  1.428495E+06  1.425680E+06  1.450362E+06  1.437753E+06  1.426273E+06
 1.412663E+06  1.483220E+06  1.433082E+06  1.424788E+06  1.415736E+06  1.419165E+06  1.415904E+06  1.415163E+06  1.417088E+06  1.422807E+06
 1.428075E+06  1.411283E+06  1.416666E+06  1.414269E+06  1.411786E+06  1.421010E+06  1.415366E+06  1.418536E+06  1.408689E+06  1.413980E+06
 1.408885E+06  1.408515E+06  1.455325E+06  1.411518E+06  1.410318E+06  1.415547E+06  1.418210E+06  1.461512E+06  1.422597E+06  1.413633E+06
 1.408823E+06  1.408406E+06  1.410673E+06  1.414997E+06  1.421830E+06  1.412009E+06  1.410172E+06  1.410687E+06  1.466623E+06  1.414554E+06
 1.405232E+06  1.410286E+06  1.439880E+06  1.403221E+06  1.420514E+06  1.415491E+06  1.447704E+06  1.403798E+06  1.407519E+06  1.405078E+06
 1.425183E+06  1.403758E+06  1.404224E+06  1.410715E+06  1.418493E+06  1.426454E+06  1.403037E+06  1.421963E+06  1.416952E+06  1.447193E+06
 1.402746E+06  1.402863E+06  1.408891E+06  1.404875E+06  1.402414E+06  1.405081E+06  1.460661E+06  1.431879E+06  1.402819E+06  1.403577E+06
 1.404290E+06  1.417244E+06  1.405959E+06  1.424943E+06  1.401846E+06  1.428024E+06  1.414229E+06  1.418773E+06  1.402007E+06  1.431917E+06
 1.405271E+06  1.403129E+06  1.411192E+06  1.413002E+06  1.420205E+06  1.411791E+06  1.403104E+06  1.402622E+06  1.405469E+06  1.411361E+06
 1.407369E+06  1.408128E+06  1.413008E+06  1.468984E+06  1.408165E+06  1.420273E+06  1.407414E+06  1.409519E+06  1.400247E+06  1.450820E+06
 1.408475E+06  1.405783E+06  1.409062E+06  1.432147E+06  1.399594E+06  1.402468E+06  1.407983E+06  1.400405E+06  1.399020E+06  1.404976E+06
 1.426056E+06  1.402399E+06  1.406284E+06  1.399101E+06  1.399127E+06  1.412663E+06  1.405343E+06  1.403671E+06  1.437999E+06  1.400809E+06
 1.403347E+06  1.418057E+06  1.397933E+06  1.401121E+06  1.415284E+06  1.401295E+06  1.401605E+06  1.421620E+06  1.402121E+06  1.435593E+06
 1.397004E+06  1.397152E+06  1.397453E+06  1.396734E+06  1.396483E+06  1.397142E+06  1.412318E+06  1.409626E+06  1.410934E+06  1.400702E+06
 1.476343E+06  1.403938E+06  1.406992E+06  1.406151E+06  1.410366E+06  1.411394E+06  1.402644E+06  1.396441E+06  1.404397E+06  1.408171E+06
 1.397502E+06  1.397312E+06  1.395231E+06  1.401459E+06  1.406284E+06  1.397380E+06  1.396131E+06  1.394361E+06  1.400356E+06  1.397472E+06
 1.447161E+06  1.396464E+06  1.461151E+06  1.403102E+06  1.414210E+06  1.396015E+06  1.406580E+06  1.427453E+06  1.393493E+06  1.418727E+06
 1.400926E+06  1.395020E+06  1.393482E+06  1.397490E+06  1.400771E+06  1.421610E+06  1.403280E+06  1.398768E+06  1.414465E+06  1.405384E+06
 1.415603E+06  1.398942E+06  1.402676E+06  1.401430E+06  1.404368E+06  1.395296E+06  1.393155E+06  1.397371E+06  1.397535E+06  1.427862E+06
 1.452511E+06  1.393718E+06  1.403026E+06  1.395008E+06  1.392787E+06  1.392650E+06  1.400716E+06  1.393593E+06  1.410214E+06  1.412858E+06
 1.392435E+06  1.392861E+06  1.393508E+06  1.399589E+06  1.420536E+06  1.391801E+06  1.465968E+06  1.392013E+06  1.395054E+06  1.392680E+06
 1.409003E+06  1.391446E+06  1.393340E+06  1.391160E+06  1.393595E+06  1.437136E+06  1.391652E+06  1.394351E+06  1.390830E+06  1.393842E+06
 1.403935E+06  1.390934E+06  1.405528E+06  1.390846E+06  1.392577E+06  1.394946E+06  1.395394E+06  1.395314E+06  1.396752E+06  1.393082E+06
 1.392359E+06  1.390473E+06  1.398697E+06  1.389949E+06  1.394920E+06  1.389989E+06  1.412038E+06  1.389843E+06  1.392656E+06  1.391870E+06
 1.405210E+06  1.391680E+06  1.476355E+06  1.414048E+06  1.407609E+06  1.390404E+06  1.402636E+06  1.398485E+06  1.401910E+06  1.404874E+06
 1.395177E+06  1.420280E+06  1.389167E+06  1.402638E+06  1.397913E+06  1.388505E+06  1.388345E+06  1.407392E+06  1.389581E+06  1.387858E+06
 1.387976E+06  1.446246E+06  1.399467E+06  1.400311E+06  1.393501E+06  1.395534E+06  1.397811E+06  1.394128E+06  1.390084E+06  1.397919E+06
 1.394589E+06  1.386991E+06  1.434222E+06  1.409510E+06  1.403402E+06  1.426093E+06  1.392402E+06  1.389819E+06  1.391687E+06  1.393735E+06
 1.395677E+06  1.390947E+06  1.397762E+06  1.391315E+06  1.472271E+06  1.388823E+06  1.387422E+06  1.395247E+06  1.386598E+06  1.398241E+06
 1.416688E+06  1.477347E+06  1.423638E+06  1.465164E+06  1.436189E+06  1.461205E+06  1.446725E+06  1.442058E+06  1.413296E+06  1.449237E+06
 1.476187E+06  1.380990E+06  1.427621E+06  1.418378E+06  1.381342E+06  1.380772E+06  1.383032E+06  1.389657E+06  1.381021E+06  1.393309E+06
 1.379693E+06  1.383795E+06  1.379575E+06  1.383987E+06  1.399812E+06  1.380127E+06  1.387956E+06  1.381149E+06  1.381032E+06  1.383529E+06
 1.380799E+06  1.431668E+06  1.387878E+06  1.388910E+06  1.392752E+06  1.396859E+06  1.381205E+06  1.384622E+06  1.398007E+06  1.380064E+06
 1.411543E+06  1.403182E+06  1.383509E+06  1.384653E+06  1.378921E+06  1.383559E+06  1.395228E+06  1.390129E+06  1.384948E+06  1.408555E+06
 1.401106E+06  1.405306E+06  1.394002E+06  1.379227E+06  1.379075E+06  1.378429E+06  1.391417E+06  1.383550E+06  1.378923E+06  1.380122E+06
 1.379300E+06  1.384475E+06  1.378176E+06  1.386292E+06  1.378827E+06  1.402377E+06  1.385345E+06  1.380859E+06  1.381218E+06  1.472633E+06
 1.381896E+06  1.384687E+06  1.377850E+06  1.384268E+06  1.392296E+06  1.406605E+06  1.380189E+06  1.387561E+06  1.383065E+06  1.388427E+06
 1.396940E+06  1.379069E+06  1.379047E+06  1.389667E+06  1.377477E+06  1.378224E+06  1.378476E+06  1.379056E+06  1.377407E+06  1.400125E+06
 1.379897E+06  1.385401E+06  1.381091E+06  1.380271E+06  1.393259E+06  1.467401E+06  1.376826E+06  1.377558E+06  1.387566E+06  1.388369E+06
 1.398071E+06  1.377413E+06  1.382095E+06  1.395477E+06  1.376725E+06  1.378831E+06  1.434022E+06  1.376546E+06  1.381290E+06  1.376811E+06
 1.419482E+06  1.413955E+06  1.376987E+06  1.380740E+06  1.381260E+06  1.391903E+06  1.380030E+06  1.394471E+06  1.397434E+06  1.385850E+06
 1.377504E+06  1.382984E+06  1.384155E+06  1.390258E+06  1.376603E+06  1.383466E+06  1.381915E+06  1.377340E+06  1.386148E+06  1.376943E+06
 1.376316E+06  1.375661E+06  1.375766E+06  1.393277E+06  1.412758E+06  1.471210E+06  1.471212E+06  1.384578E+06  1.379765E+06  1.377299E+06
 1.378200E+06  1.384593E+06  1.377207E+06  1.386546E+06  1.376230E+06  1.380574E+06  1.388753E+06  1.402230E+06  1.379999E+06  1.376620E+06
 1.375359E+06  1.402590E+06  1.408334E+06  1.376454E+06  1.383556E+06  1.377329E+06  1.385827E+06  1.384901E+06  1.382583E+06  1.442443E+06
 1.375391E+06  1.381023E+06  1.428716E+06  1.408197E+06  1.376336E+06  1.391983E+06  1.376573E+06  1.381315E+06  1.389129E+06  1.434857E+06
 1.389773E+06  1.379994E+06  1.387239E+06  1.397916E+06  1.383725E+06  1.375487E+06  1.375218E+06  1.386863E+06  1.374182E+06  1.403940E+06
 1.418890E+06  1.378293E+06  1.386081E+06  1.446786E+06  1.376584E+06  1.374603E+06  1.375756E+06  1.381096E+06  1.373964E+06  1.373764E+06
 1.377231E+06  1.374132E+06  1.399621E+06  1.387279E+06  1.393937E+06  1.373523E+06  1.390074E+06  1.403744E+06  1.373558E+06  1.376292E+06
 1.373312E+06  1.373749E+06  1.377915E+06  1.374665E+06  1.378097E+06  1.394032E+06  1.382429E+06  1.372860E+06  1.377238E+06  1.384680E+06
 1.383454E+06  1.375473E+06  1.394776E+06  1.384107E+06  1.372503E+06  1.374172E+06  1.377827E+06  1.376512E+06  1.378818E+06  1.444617E+06
 1.396855E+06  1.375439E+06  1.372112E+06  1.376985E+06  1.372184E+06  1.381230E+06  1.398161E+06  1.375952E+06  1.373025E+06  1.372613E+06
 1.379964E+06  1.374173E+06  1.371869E+06  1.391150E+06  1.372166E+06  1.372697E+06  1.378701E+06  1.373142E+06  1.374225E+06  1.371574E+06
 1.371754E+06  1.382005E+06  1.375113E+06  1.377613E+06  1.417748E+06  1.370887E+06  1.424213E+06  1.447925E+06  1.376021E+06  1.406673E+06
 1.389768E+06  1.430325E+06  1.370788E+06  1.370089E+06  1.370294E+06  1.370626E+06  1.409712E+06  1.378429E+06  1.374026E+06  1.386003E+06
 1.398022E+06  1.370061E+06  1.380177E+06  1.376349E+06  1.378608E+06  1.401800E+06  1.374586E+06  1.430241E+06  1.423699E+06  1.451532E+06
 1.392820E+06  1.410506E+06  1.382509E+06  1.386725E+06  1.375255E+06  1.385909E+06  1.370602E+06  1.374577E+06  1.376546E+06  1.368142E+06
 1.367977E+06  1.372136E+06  1.370763E+06  1.383568E+06  1.389163E+06  1.369699E+06  1.367764E+06  1.383461E+06  1.372851E+06  1.401178E+06
 1.367293E+06  1.379361E+06  1.366894E+06  1.369077E+06  1.366969E+06  1.374868E+06  1.366669E+06  1.373179E+06  1.443482E+06  1.368322E+06
 1.366472E+06  1.380487E+06  1.368307E+06  1.367229E+06  1.415234E+06  1.371818E+06  1.388739E+06  1.386318E+06  1.369617E+06  1.366016E+06
 1.375263E+06  1.367009E+06  1.366341E+06  1.367277E+06  1.369513E+06  1.376255E+06  1.368566E+06  1.379567E+06  1.380533E+06  1.365299E+06
 1.371238E+06  1.403816E+06  1.366469E+06  1.395928E+06  1.365722E+06  1.368123E+06  1.365020E+06  1.373052E+06  1.390028E+06  1.363684E+06
 1.392867E+06  1.370861E+06  1.387731E+06  1.417759E+06  1.368798E+06  1.367875E+06  1.369001E+06  1.375687E+06  1.411042E+06  1.371231E+06
 1.376828E+06  1.426531E+06  1.391362E+06  1.395622E+06  1.365792E+06  1.449796E+06  1.404607E+06  1.372737E+06  1.362363E+06  1.364186E+06
 1.399086E+06  1.362543E+06  1.364047E+06  1.373406E+06  1.433435E+06  1.364699E+06  1.381859E+06  1.362695E+06  1.361732E+06  1.361193E+06
 1.365937E+06  1.361913E+06  1.361549E+06  1.382739E+06  1.367629E+06  1.367116E+06  1.361069E+06  1.369266E+06  1.385931E+06  1.360229E+06
 1.367931E+06  1.360719E+06  1.360369E+06  1.382988E+06  1.362115E+06  1.440136E+06  1.370417E+06  1.363143E+06  1.378590E+06  1.404903E+06
 1.373692E+06  1.368789E+06  1.361938E+06  1.376506E+06  1.360825E+06  1.359895E+06  1.360208E+06  1.361836E+06  1.359074E+06  1.366033E+06
 1.378094E+06  1.363010E+06  1.415611E+06  1.359138E+06  1.374168E+06  1.368710E+06  1.362101E+06  1.419125E+06  1.365992E+06  1.448347E+06
 1.358167E+06  1.369942E+06  1.375556E+06  1.389687E+06  1.366935E+06  1.393622E+06  1.359194E+06  1.410371E+06  1.424386E+06  1.363624E+06
 1.362907E+06  1.360856E+06  1.358187E+06  1.361239E+06  1.385142E+06  1.406632E+06  1.372502E+06  1.381608E+06  1.395753E+06  1.369321E+06
 1.357135E+06  1.368804E+06  1.383691E+06  1.358101E+06  1.367017E+06  1.354860E+06  1.355275E+06  1.444275E+06  1.399419E+06  1.389509E+06
 1.431021E+06  1.386751E+06  1.354644E+06  1.375361E+06  1.360638E+06  1.393227E+06  1.445718E+06  1.445230E+06  1.359128E+06  1.353458E+06
 1.353250E+06  1.354386E+06  1.360696E+06  1.356772E+06  1.358178E+06  1.352906E+06  1.353016E+06  1.374857E+06  1.417965E+06  1.376084E+06
 1.444680E+06  1.445305E+06  1.378371E+06  1.361312E+06  1.353515E+06  1.354961E+06  1.352774E+06  1.363866E+06  1.359451E+06  1.362355E+06
 1.353424E+06  1.435220E+06  1.357095E+06  1.351544E+06  1.353418E+06  1.351941E+06  1.351117E+06  1.359589E+06  1.354236E+06  1.366600E+06
 1.350164E+06  1.370651E+06  1.403399E+06  1.353037E+06  1.360370E+06  1.382601E+06  1.363079E+06  1.354181E+06  1.361342E+06  1.417294E+06
 1.366997E+06  1.349846E+06  1.393789E+06  1.362498E+06  1.402232E+06  1.406612E+06  1.364450E+06  1.354103E+06  1.429387E+06  1.351875E+06
 1.419183E+06  1.349297E+06  1.367927E+06  1.388861E+06  1.384231E+06  1.372776E+06  1.355436E+06  1.349512E+06  1.393176E+06  1.375015E+06
 1.346325E+06  1.346092E+06  1.352325E+06  1.347040E+06  1.348252E+06  1.346314E+06  1.376021E+06  1.350235E+06  1.369776E+06  1.359473E+06
 1.344254E+06  1.349302E+06  1.406628E+06  1.381377E+06  1.366636E+06  1.343842E+06  1.343734E+06  1.346537E+06  1.343067E+06  1.346837E+06
 1.353469E+06  1.342694E+06  1.374608E+06  1.342550E+06  1.346262E+06  1.346621E+06  1.350195E+06  1.344286E+06  1.354136E+06  1.355952E+06
 1.341879E+06  1.350604E+06  1.358203E+06  1.343230E+06  1.391044E+06  1.427217E+06  1.348861E+06  1.403207E+06  1.359898E+06  1.352281E+06
 1.356351E+06  1.359908E+06  1.389230E+06  1.340854E+06  1.374469E+06  1.364757E+06  1.380236E+06  1.344420E+06  1.337094E+06  1.413418E+06
 1.360994E+06  1.340553E+06  1.378775E+06  1.365180E+06  1.337919E+06  1.336493E+06  1.404507E+06  1.389846E+06  1.370360E+06  1.338014E+06
 1.340346E+06  1.334563E+06  1.349768E+06  1.334651E+06  1.341165E+06  1.335498E+06  1.346722E+06  1.334241E+06  1.338383E+06  1.343788E+06
 1.410745E+06  1.363731E+06  1.356036E+06  1.336516E+06  1.418951E+06  1.389313E+06  1.332100E+06  1.332738E+06  1.351081E+06  1.340431E+06
 1.398184E+06  1.340756E+06  1.343357E+06  1.379275E+06  1.421136E+06  1.332029E+06  1.367540E+06  1.344435E+06  1.420958E+06  1.348162E+06
 1.351575E+06  1.330833E+06  1.354773E+06  1.366880E+06  1.388073E+06  1.374525E+06  1.325738E+06  1.331493E+06  1.332626E+06  1.332253E+06
 1.326677E+06  1.333746E+06  1.407509E+06  1.326343E+06  1.356855E+06  1.336707E+06  1.351758E+06  1.418125E+06  1.416025E+06  1.324580E+06
 1.328465E+06  1.333687E+06  1.338951E+06  1.368092E+06  1.323130E+06  1.331114E+06  1.321977E+06  1.324111E+06  1.340870E+06  1.344662E+06
 1.320855E+06  1.372774E+06  1.353659E+06  1.386409E+06  1.376548E+06  1.322608E+06  1.331022E+06  1.358778E+06  1.322326E+06  1.355500E+06
 1.386377E+06  1.332730E+06  1.327263E+06  1.403802E+06  1.401431E+06  1.338842E+06  1.343026E+06  1.335474E+06  1.318449E+06  1.319702E+06
 1.389240E+06  1.322837E+06  1.316753E+06  1.360581E+06  1.345052E+06  1.371314E+06  1.313911E+06  1.319671E+06  1.314257E+06  1.312791E+06
 1.325116E+06  1.355420E+06  1.326794E+06  1.311979E+06  1.403757E+06  1.328903E+06  1.315697E+06  1.313057E+06  1.318751E+06  1.336719E+06
 1.388010E+06  1.332955E+06  1.342986E+06  1.316965E+06  1.370792E+06  1.358693E+06  1.341882E+06  1.368035E+06  1.355489E+06  1.309606E+06
 1.317612E+06  1.320358E+06  1.310659E+06  1.308584E+06  1.386389E+06  1.344351E+06  1.326082E+06  1.306271E+06  1.305219E+06  1.396789E+06
 1.306673E+06  1.322379E+06  1.332867E+06  1.310066E+06  1.303764E+06  1.399638E+06  1.398802E+06  1.400433E+06  1.401543E+06  1.303131E+06
 1.372167E+06  1.312063E+06  1.354974E+06  1.370743E+06  1.345091E+06  1.328893E+06  1.340514E+06  1.301187E+06  1.307536E+06  1.312120E+06
 1.304655E+06  1.321063E+06  1.301527E+06  1.313579E+06  1.330308E+06  1.329743E+06  1.384095E+06  1.303412E+06  1.308423E+06  1.299833E+06
 1.296675E+06  1.317798E+06  1.349504E+06  1.297623E+06  1.296498E+06  1.295464E+06  1.354960E+06  1.357254E+06  1.294605E+06  1.384564E+06
 1.295713E+06  1.310621E+06  1.338474E+06  1.330153E+06  1.370730E+06  1.296758E+06  1.318447E+06  1.301561E+06  1.316728E+06  1.386377E+06
 1.290562E+06  1.327267E+06  1.296561E+06  1.289418E+06  1.341194E+06  1.333024E+06  1.372320E+06  1.363424E+06  1.297248E+06  1.287926E+06
 1.301206E+06  1.301203E+06  1.292310E+06  1.353012E+06  1.317848E+06  1.290466E+06  1.306802E+06  1.286508E+06  1.316747E+06  1.288625E+06
 1.303619E+06  1.286037E+06  1.288345E+06  1.286542E+06  1.291214E+06  1.354650E+06  1.306510E+06  1.335085E+06  1.344432E+06  1.284001E+06
 1.323578E+06  1.297168E+06  1.321619E+06  1.292313E+06  1.382879E+06  1.328752E+06  1.281828E+06  1.305828E+06  1.314001E+06  1.337472E+06
 1.280058E+06  1.288328E+06  1.292013E+06  1.285629E+06  1.366450E+06  1.283379E+06  1.313618E+06  1.307756E+06  1.301686E+06  1.281284E+06
 1.278096E+06  1.283710E+06  1.277712E+06  1.292447E+06  1.322448E+06  1.277065E+06  1.284346E+06  1.296282E+06  1.288060E+06  1.278124E+06
 1.276183E+06  1.382723E+06  1.342271E+06  1.358626E+06  1.293426E+06  1.284540E+06  1.277688E+06  1.303938E+06  1.273829E+06  1.278239E+06
 1.354863E+06  1.367064E+06  1.340883E+06  1.275035E+06  1.276809E+06  1.279336E+06  1.278516E+06  1.369590E+06  1.325801E+06  1.309429E+06
 1.315904E+06  1.272438E+06  1.295298E+06  1.286404E+06  1.309296E+06  1.384861E+06  1.383192E+06  1.288490E+06  1.372066E+06  1.319821E+06
 1.310689E+06  1.345926E+06  1.280588E+06  1.281279E+06  1.297062E+06  1.269577E+06  1.275433E+06  1.295120E+06  1.301322E+06  1.283014E+06
 1.327879E+06  1.272877E+06  1.270608E+06  1.343037E+06  1.269574E+06  1.275838E+06  1.320930E+06  1.267882E+06  1.267790E+06  1.299108E+06
 1.266678E+06  1.266760E+06  1.266553E+06  1.371423E+06  1.286637E+06  1.288172E+06  1.269342E+06  1.271214E+06  1.324671E+06  1.278615E+06
 1.274532E+06  1.313586E+06  1.266762E+06  1.281231E+06  1.275889E+06  1.306910E+06  1.265041E+06  1.264530E+06  1.270989E+06  1.292062E+06
 1.265981E+06  1.267815E+06  1.273822E+06  1.307559E+06  1.278859E+06  1.265304E+06  1.288037E+06  1.268297E+06  1.297719E+06  1.266147E+06
 1.328703E+06  1.263290E+06  1.315551E+06  1.284155E+06  1.333699E+06  1.300632E+06  1.380631E+06  1.264356E+06  1.281678E+06  1.275455E+06
 1.285627E+06  1.272582E+06  1.324552E+06  1.278264E+06  1.267045E+06  1.307797E+06  1.288657E+06  1.269461E+06  1.344202E+06  1.260527E+06
 1.261622E+06  1.294249E+06  1.278448E+06  1.272887E+06  1.260041E+06  1.353795E+06  1.353247E+06  1.290257E+06  1.297379E+06  1.263894E+06
 1.310165E+06  1.317157E+06  1.265164E+06  1.258222E+06  1.274509E+06  1.258387E+06  1.258477E+06  1.257217E+06  1.259062E+06  1.340143E+06
 1.256683E+06  1.257664E+06  1.262404E+06  1.266408E+06  1.264469E+06  1.286730E+06  1.298089E+06  1.271538E+06  1.268347E+06  1.256527E+06
 1.265921E+06  1.259657E+06  1.256992E+06  1.311166E+06  1.302962E+06  1.266255E+06  1.329507E+06  1.276914E+06  1.274716E+06  1.257639E+06
 1.259637E+06  1.294805E+06  1.288659E+06  1.278413E+06  1.260098E+06  1.254714E+06  1.283201E+06  1.297384E+06  1.255925E+06  1.256692E+06
 1.256921E+06  1.279204E+06  1.260027E+06  1.357749E+06  1.273968E+06  1.265177E+06  1.266939E+06  1.271768E+06  1.266154E+06  1.254647E+06
 1.304883E+06  1.267820E+06  1.282751E+06  1.278302E+06  1.317493E+06  1.331710E+06  1.287614E+06  1.251997E+06  1.296973E+06  1.255633E+06
 1.321884E+06  1.267372E+06  1.252207E+06  1.286812E+06  1.251391E+06  1.367631E+06  1.250655E+06  1.308650E+06  1.252585E+06  1.273755E+06
 1.250842E+06  1.257283E+06  1.259562E+06  1.267080E+06  1.258263E+06  1.255505E+06  1.251805E+06  1.249430E+06  1.249329E+06  1.288869E+06
 1.307331E+06  1.312046E+06  1.280801E+06  1.259017E+06  1.253671E+06  1.248996E+06  1.297142E+06  1.287124E+06  1.254333E+06  1.274952E+06
 1.267943E+06  1.250963E+06  1.248908E+06  1.355024E+06  1.269903E+06  1.247753E+06  1.259085E+06  1.251552E+06  1.261658E+06  1.276290E+06
 1.247408E+06  1.248270E+06  1.255808E+06  1.275365E+06  1.246957E+06  1.248526E+06  1.254112E+06  1.258494E+06  1.256858E+06  1.287578E+06
 1.277913E+06  1.269767E+06  1.335974E+06  1.266951E+06  1.263985E+06  1.270788E+06  1.251091E+06  1.293815E+06  1.263623E+06  1.365661E+06
 1.247025E+06  1.249615E+06  1.287920E+06  1.246161E+06  1.246550E+06  1.248527E+06  1.247047E+06  1.244879E+06  1.257591E+06  1.250480E+06
 1.247110E+06  1.245504E+06  1.259033E+06  1.288152E+06  1.246967E+06  1.295416E+06  1.253249E+06  1.256850E+06  1.263684E+06  1.265240E+06
 1.250442E+06  1.245939E+06  1.326606E+06  1.317015E+06  1.296543E+06  1.279657E+06  1.246887E+06  1.342762E+06  1.258829E+06  1.244789E+06
 1.242663E+06  1.303909E+06  1.245281E+06  1.275369E+06  1.245637E+06  1.252658E+06  1.278416E+06  1.267783E+06  1.242677E+06  1.247072E+06
 1.334932E+06  1.242407E+06  1.275422E+06  1.246562E+06  1.357237E+06  1.256958E+06  1.247841E+06  1.268452E+06  1.249406E+06  1.258042E+06
 1.248205E+06  1.261527E+06  1.243285E+06  1.259870E+06  1.296140E+06  1.264883E+06  1.243823E+06  1.246686E+06  1.249378E+06  1.317987E+06
 1.305799E+06  1.257722E+06  1.270063E+06  1.278848E+06  1.265533E+06  1.308609E+06  1.249956E+06  1.278070E+06  1.261086E+06  1.250924E+06
 1.239959E+06  1.257339E+06  1.239775E+06  1.239943E+06  1.267025E+06  1.297344E+06  1.252852E+06  1.239186E+06  1.268823E+06  1.243058E+06
 1.263007E+06  1.261552E+06  1.261350E+06  1.239154E+06  1.243023E+06  1.239765E+06  1.240015E+06  1.239484E+06  1.239991E+06  1.279543E+06
 1.283242E+06  1.270053E+06  1.265437E+06  1.240169E+06  1.249595E+06  1.256320E+06  1.247728E+06  1.251468E+06  1.278255E+06  1.239628E+06
 1.339359E+06  1.245409E+06  1.240017E+06  1.238121E+06  1.267677E+06  1.237620E+06  1.237350E+06  1.239164E+06  1.245888E+06  1.239252E+06
 1.242391E+06  1.249369E+06  1.286714E+06  1.251582E+06  1.252992E+06  1.242824E+06  1.239533E+06  1.241435E+06  1.240432E+06  1.269575E+06
 1.241940E+06  1.239374E+06  1.354957E+06  1.271242E+06  1.248123E+06  1.237078E+06  1.242587E+06  1.246392E+06  1.279602E+06  1.255958E+06
 1.237983E+06  1.235704E+06  1.236763E+06  1.240388E+06  1.239414E+06  1.246254E+06  1.243100E+06  1.281923E+06  1.235581E+06  1.235815E+06
 1.260469E+06  1.248063E+06  1.286009E+06  1.322405E+06  1.254050E+06  1.256578E+06  1.238181E+06  1.250891E+06  1.261443E+06  1.294212E+06