# vtk DataFile Version 2.0
PFLOTRAN output
ASCII
DATASET UNSTRUCTURED_GRID
CELL_DATA   14538
SCALARS Liquid_Pressure      float 1
LOOKUP_TABLE default
 2.000000E+06  2.000000E+06  2.000000E+06  2.000000E+06  2.000000E+06  2.000000E+06  2.000000E+06  2.000000E+06  2.000000E+06  2.000000E+06
 2.000000E+06  2.000000E+06  2.000000E+06  2.000000E+06  2.000000E+06  2.000000E+06  2.000000E+06  2.000000E+06  1.973782E+06  1.966527E+06
 1.963660E+06  1.965058E+06  1.963829E+06  1.966401E+06  1.961732E+06  1.959988E+06  1.960595E+06  1.959067E+06  1.960011E+06  1.957067E+06
 1.953064E+06  1.953391E+06  1.947086E+06  1.938883E+06  1.941999E+06  1.933856E+06  1.934029E+06  1.921852E+06  1.923351E+06  1.924078E+06
 1.921968E+06  1.920354E+06  1.914436E+06  1.915895E+06  1.918983E+06  1.913357E+06  1.923488E+06  1.908520E+06  1.907584E+06  1.910241E+06
 1.908610E+06  1.899540E+06  1.891187E+06  1.893892E+06  1.890263E+06  1.886316E+06  1.884213E+06  1.883044E+06  1.880373E+06  1.877441E+06
 1.878259E+06  1.874939E+06  1.873507E+06  1.868760E+06  1.871666E+06  1.861815E+06  1.861903E+06  1.862138E+06  1.862890E+06  1.857486E+06
 1.853900E+06  1.850549E+06  1.839812E+06  1.836726E+06  1.841232E+06  1.845148E+06  1.836267E+06  1.832288E+06  1.833438E+06  1.833220E+06
 1.835473E+06  1.831707E+06  1.834450E+06  1.827870E+06  1.829522E+06  1.816587E+06  1.816214E+06  1.812209E+06  1.810223E+06  1.808875E+06
 1.805995E+06  1.808870E+06  1.802545E+06  1.807358E+06  1.793196E+06  1.796928E+06  1.792123E+06  1.803163E+06  1.798684E+06  1.802770E+06
 1.799002E+06  1.799919E+06  1.791523E+06  1.784458E+06  1.784918E+06  1.771497E+06  1.770935E+06  1.778445E+06  1.780724E+06  1.771707E+06
 1.773683E+06  1.763751E+06  1.761454E+06  1.773849E+06  1.760752E+06  1.761816E+06  1.762456E+06  1.768564E+06  1.759464E+06  1.765664E+06
 1.744751E+06  1.748184E+06  1.744502E+06  1.748733E+06  1.753416E+06  1.747373E+06  1.762251E+06  1.763085E+06  1.737563E+06  1.732316E+06
 1.732421E+06  1.749519E+06  1.727444E+06  1.734401E+06  1.723066E+06  1.740104E+06  1.739220E+06  1.744926E+06  1.723249E+06  1.723760E+06
 1.736771E+06  1.729326E+06  1.723915E+06  1.716702E+06  1.711305E+06  1.707286E+06  1.713363E+06  1.706944E+06  1.731161E+06  1.731687E+06
 1.731196E+06  1.730623E+06  1.715864E+06  1.702956E+06  1.705378E+06  1.706908E+06  1.695781E+06  1.701215E+06  1.713114E+06  1.690960E+06
 1.691567E+06  1.711283E+06  1.693681E+06  1.706269E+06  1.690180E+06  1.682884E+06  1.693698E+06  1.679660E+06  1.695449E+06  1.692213E+06
 1.706734E+06  1.704544E+06  1.681677E+06  1.691540E+06  1.674592E+06  1.671952E+06  1.700131E+06  1.670280E+06  1.698876E+06  1.666214E+06
 1.683897E+06  1.674477E+06  1.663767E+06  1.666952E+06  1.668721E+06  1.663416E+06  1.659093E+06  1.669008E+06  1.656890E+06  1.661620E+06
 1.661678E+06  1.674265E+06  1.686415E+06  1.686930E+06  1.681697E+06  1.652877E+06  1.671052E+06  1.664523E+06  1.662064E+06  1.676073E+06
 1.650466E+06  1.644173E+06  1.647711E+06  1.642269E+06  1.675819E+06  1.678792E+06  1.667206E+06  1.645389E+06  1.641225E+06  1.637574E+06
 1.655080E+06  1.640970E+06  1.636320E+06  1.647077E+06  1.637576E+06  1.660739E+06  1.641336E+06  1.653451E+06  1.640456E+06  1.626849E+06
 1.632969E+06  1.639682E+06  1.623127E+06  1.625870E+06  1.650580E+06  1.622304E+06  1.636982E+06  1.663013E+06  1.622268E+06  1.645161E+06
 1.628278E+06  1.620275E+06  1.662373E+06  1.621031E+06  1.662734E+06  1.663127E+06  1.635709E+06  1.624207E+06  1.635607E+06  1.649589E+06
 1.621484E+06  1.659817E+06  1.659954E+06  1.625632E+06  1.609922E+06  1.611515E+06  1.621785E+06  1.610359E+06  1.616536E+06  1.647281E+06
 1.613661E+06  1.647222E+06  1.628342E+06  1.636121E+06  1.605392E+06  1.634242E+06  1.608624E+06  1.608642E+06  1.607428E+06  1.611096E+06
 1.600674E+06  1.644021E+06  1.601485E+06  1.621754E+06  1.616803E+06  1.603116E+06  1.605884E+06  1.612148E+06  1.602696E+06  1.634001E+06
 1.596405E+06  1.594809E+06  1.622232E+06  1.595517E+06  1.595150E+06  1.596421E+06  1.610900E+06  1.591465E+06  1.590828E+06  1.604465E+06
 1.612125E+06  1.590397E+06  1.604623E+06  1.599413E+06  1.624861E+06  1.595234E+06  1.592493E+06  1.613974E+06  1.583101E+06  1.585128E+06
 1.588738E+06  1.591033E+06  1.596677E+06  1.619000E+06  1.625565E+06  1.634471E+06  1.584006E+06  1.586018E+06  1.583277E+06  1.605540E+06
 1.592287E+06  1.583938E+06  1.581469E+06  1.578914E+06  1.583109E+06  1.610250E+06  1.596184E+06  1.579794E+06  1.624854E+06  1.583776E+06
 1.600072E+06  1.584936E+06  1.575065E+06  1.602366E+06  1.573632E+06  1.571297E+06  1.624536E+06  1.599698E+06  1.581831E+06  1.580251E+06
 1.592211E+06  1.576930E+06  1.586773E+06  1.572676E+06  1.625914E+06  1.584304E+06  1.587103E+06  1.570328E+06  1.567427E+06  1.567435E+06
 1.568500E+06  1.569462E+06  1.572811E+06  1.579683E+06  1.565545E+06  1.589286E+06  1.601314E+06  1.572217E+06  1.619890E+06  1.585090E+06
 1.613161E+06  1.570534E+06  1.566812E+06  1.564439E+06  1.613852E+06  1.561520E+06  1.574994E+06  1.561217E+06  1.560037E+06  1.603546E+06
 1.565944E+06  1.560894E+06  1.557630E+06  1.564873E+06  1.576993E+06  1.618263E+06  1.617700E+06  1.585703E+06  1.562229E+06  1.587491E+06
 1.555608E+06  1.603593E+06  1.562399E+06  1.559246E+06  1.565013E+06  1.559127E+06  1.565611E+06  1.557588E+06  1.570408E+06  1.578977E+06
 1.562355E+06  1.587917E+06  1.553351E+06  1.566526E+06  1.560461E+06  1.590968E+06  1.571883E+06  1.557474E+06  1.551567E+06  1.550583E+06
 1.548403E+06  1.593468E+06  1.585421E+06  1.561171E+06  1.548635E+06  1.561990E+06  1.557064E+06  1.553200E+06  1.555482E+06  1.547926E+06
 1.548350E+06  1.550182E+06  1.554905E+06  1.598250E+06  1.550841E+06  1.561963E+06  1.547985E+06  1.565047E+06  1.578976E+06  1.547205E+06
 1.567599E+06  1.547907E+06  1.546182E+06  1.547563E+06  1.544875E+06  1.549555E+06  1.550460E+06  1.549060E+06  1.584129E+06  1.569708E+06
 1.565685E+06  1.566771E+06  1.541619E+06  1.553929E+06  1.539814E+06  1.552367E+06  1.541140E+06  1.545718E+06  1.539988E+06  1.540868E+06
 1.557695E+06  1.538782E+06  1.569585E+06  1.549102E+06  1.547690E+06  1.542950E+06  1.540535E+06  1.573930E+06  1.537498E+06  1.555066E+06
 1.552391E+06  1.547312E+06  1.539845E+06  1.540702E+06  1.535689E+06  1.548484E+06  1.540331E+06  1.536154E+06  1.534988E+06  1.542544E+06
 1.565938E+06  1.542288E+06  1.540824E+06  1.542356E+06  1.539881E+06  1.541632E+06  1.553696E+06  1.544319E+06  1.561379E+06  1.531741E+06
 1.531587E+06  1.579503E+06  1.530676E+06  1.534643E+06  1.534042E+06  1.533505E+06  1.582292E+06  1.550694E+06  1.531158E+06  1.530328E+06
 1.530540E+06  1.571933E+06  1.556090E+06  1.529397E+06  1.570697E+06  1.535941E+06  1.547716E+06  1.538989E+06  1.534784E+06  1.530239E+06
 1.546014E+06  1.530421E+06  1.530412E+06  1.529059E+06  1.549922E+06  1.541982E+06  1.538636E+06  1.551560E+06  1.535662E+06  1.525526E+06
 1.531920E+06  1.527476E+06  1.533338E+06  1.584508E+06  1.541491E+06  1.529555E+06  1.527090E+06  1.527640E+06  1.578938E+06  1.529502E+06
 1.530528E+06  1.560474E+06  1.527916E+06  1.554165E+06  1.532116E+06  1.589157E+06  1.530889E+06  1.534827E+06  1.528397E+06  1.523907E+06
 1.537296E+06  1.559807E+06  1.541973E+06  1.527337E+06  1.540398E+06  1.528039E+06  1.563412E+06  1.593225E+06  1.593789E+06  1.521290E+06
 1.588674E+06  1.522307E+06  1.533792E+06  1.533701E+06  1.544880E+06  1.520703E+06  1.520137E+06  1.520674E+06  1.529115E+06  1.519617E+06
 1.519694E+06  1.582745E+06  1.590095E+06  1.529853E+06  1.521917E+06  1.529014E+06  1.519677E+06  1.519141E+06  1.527850E+06  1.568623E+06
 1.526965E+06  1.517843E+06  1.537573E+06  1.518418E+06  1.525588E+06  1.529144E+06  1.523742E+06  1.524729E+06  1.524026E+06  1.516998E+06
 1.520001E+06  1.590311E+06  1.590154E+06  1.550319E+06  1.549934E+06  1.531914E+06  1.543701E+06  1.519700E+06  1.523591E+06  1.519847E+06
 1.517593E+06  1.544423E+06  1.536571E+06  1.531808E+06  1.536888E+06  1.528096E+06  1.521797E+06  1.520276E+06  1.520771E+06  1.523516E+06
 1.517121E+06  1.515623E+06  1.539496E+06  1.522819E+06  1.516851E+06  1.520918E+06  1.517853E+06  1.516608E+06  1.518091E+06  1.529951E+06
 1.515311E+06  1.524273E+06  1.512884E+06  1.514558E+06  1.519846E+06  1.559303E+06  1.525376E+06  1.521353E+06  1.512187E+06  1.525487E+06
 1.513975E+06  1.512237E+06  1.524575E+06  1.515532E+06  1.511506E+06  1.511531E+06  1.527169E+06  1.518081E+06  1.571332E+06  1.509951E+06
 1.514826E+06  1.551308E+06  1.560030E+06  1.510850E+06  1.517490E+06  1.512265E+06  1.545704E+06  1.581075E+06  1.508944E+06  1.514432E+06
 1.508471E+06  1.508460E+06  1.514868E+06  1.508228E+06  1.552180E+06  1.564322E+06  1.515014E+06  1.525291E+06  1.512633E+06  1.519640E+06
 1.512069E+06  1.507589E+06  1.518285E+06  1.507262E+06  1.510955E+06  1.508578E+06  1.507699E+06  1.545455E+06  1.521755E+06  1.516654E+06
 1.517858E+06  1.538193E+06  1.510215E+06  1.536779E+06  1.532287E+06  1.513726E+06  1.528616E+06  1.524019E+06  1.511351E+06  1.515081E+06
 1.506322E+06  1.527364E+06  1.515000E+06  1.510328E+06  1.508173E+06  1.509840E+06  1.511690E+06  1.505326E+06  1.507851E+06  1.506234E+06
 1.511005E+06  1.513226E+06  1.505733E+06  1.504785E+06  1.506271E+06  1.506997E+06  1.507346E+06  1.516917E+06  1.506683E+06  1.529742E+06
 1.510816E+06  1.511684E+06  1.503332E+06  1.513543E+06  1.503661E+06  1.504246E+06  1.518094E+06  1.531867E+06  1.510657E+06  1.507302E+06
 1.522030E+06  1.504871E+06  1.536332E+06  1.501688E+06  1.503573E+06  1.516510E+06  1.514285E+06  1.536568E+06  1.525164E+06  1.514522E+06
 1.502422E+06  1.566725E+06  1.520624E+06  1.513192E+06  1.505124E+06  1.508415E+06  1.505270E+06  1.504800E+06  1.506543E+06  1.511703E+06
 1.516445E+06  1.501179E+06  1.505936E+06  1.504002E+06  1.501614E+06  1.510087E+06  1.504996E+06  1.507861E+06  1.498927E+06  1.503539E+06
 1.499063E+06  1.498723E+06  1.541103E+06  1.501357E+06  1.500304E+06  1.505168E+06  1.507572E+06  1.546760E+06  1.511518E+06  1.503447E+06
 1.499097E+06  1.498596E+06  1.500771E+06  1.504680E+06  1.510829E+06  1.501984E+06  1.500325E+06  1.500794E+06  1.551486E+06  1.504285E+06
 1.495805E+06  1.500436E+06  1.527105E+06  1.493995E+06  1.509644E+06  1.505132E+06  1.534203E+06  1.494533E+06  1.497949E+06  1.495723E+06
 1.513842E+06  1.494452E+06  1.494943E+06  1.500833E+06  1.507531E+06  1.514985E+06  1.493855E+06  1.510946E+06  1.506445E+06  1.533325E+06
 1.493606E+06  1.493715E+06  1.499189E+06  1.495571E+06  1.493316E+06  1.495587E+06  1.545549E+06  1.519519E+06  1.493694E+06  1.494398E+06
 1.494887E+06  1.506703E+06  1.496358E+06  1.513297E+06  1.492815E+06  1.516060E+06  1.503997E+06  1.507772E+06  1.492962E+06  1.519911E+06
 1.495746E+06  1.494002E+06  1.501268E+06  1.502895E+06  1.509053E+06  1.501806E+06  1.493966E+06  1.493525E+06  1.496111E+06  1.501144E+06
 1.497824E+06  1.498268E+06  1.502618E+06  1.553767E+06  1.498295E+06  1.509422E+06  1.497866E+06  1.499764E+06  1.491358E+06  1.536615E+06
 1.498566E+06  1.496398E+06  1.499084E+06  1.519752E+06  1.490720E+06  1.493247E+06  1.498382E+06  1.491423E+06  1.490242E+06  1.495454E+06
 1.514622E+06  1.493172E+06  1.496852E+06  1.490271E+06  1.490291E+06  1.502585E+06  1.495777E+06  1.494290E+06  1.525416E+06  1.491923E+06
 1.494209E+06  1.507110E+06  1.489242E+06  1.492204E+06  1.504933E+06  1.492362E+06  1.492642E+06  1.510623E+06  1.493107E+06  1.522848E+06
 1.488453E+06  1.488555E+06  1.488783E+06  1.488161E+06  1.487948E+06  1.488499E+06  1.501971E+06  1.499571E+06  1.500738E+06  1.491633E+06
 1.560115E+06  1.494745E+06  1.497491E+06  1.496735E+06  1.500514E+06  1.501434E+06  1.493345E+06  1.487861E+06  1.494894E+06  1.498544E+06
 1.488952E+06  1.488625E+06  1.486877E+06  1.492513E+06  1.496851E+06  1.488843E+06  1.487696E+06  1.486086E+06  1.491521E+06  1.488751E+06
 1.533758E+06  1.488004E+06  1.546073E+06  1.493994E+06  1.503954E+06  1.487467E+06  1.496836E+06  1.515873E+06  1.485274E+06  1.507679E+06
 1.492034E+06  1.486579E+06  1.485268E+06  1.488752E+06  1.491652E+06  1.510258E+06  1.493878E+06  1.490094E+06  1.504174E+06  1.496038E+06
 1.504880E+06  1.490033E+06  1.493610E+06  1.492236E+06  1.494850E+06  1.486968E+06  1.484988E+06  1.488838E+06  1.488986E+06  1.515870E+06
 1.538671E+06  1.485436E+06  1.493922E+06  1.486703E+06  1.484613E+06  1.484530E+06  1.491847E+06  1.485413E+06  1.500357E+06  1.502420E+06
 1.484348E+06  1.484753E+06  1.485343E+06  1.490833E+06  1.509626E+06  1.483783E+06  1.550556E+06  1.483988E+06  1.486567E+06  1.484487E+06
 1.498971E+06  1.483474E+06  1.485050E+06  1.483213E+06  1.485441E+06  1.524642E+06  1.483574E+06  1.486122E+06  1.482851E+06  1.485664E+06
 1.494724E+06  1.482940E+06  1.495864E+06  1.482880E+06  1.484514E+06  1.486658E+06  1.486853E+06  1.486989E+06  1.488052E+06  1.484808E+06
 1.484162E+06  1.482570E+06  1.489768E+06  1.482085E+06  1.486420E+06  1.482131E+06  1.501972E+06  1.481961E+06  1.484415E+06  1.483889E+06
 1.495858E+06  1.483715E+06  1.560282E+06  1.503773E+06  1.497706E+06  1.482437E+06  1.493267E+06  1.489836E+06  1.492624E+06  1.495258E+06
 1.486861E+06  1.509025E+06  1.481333E+06  1.493547E+06  1.489050E+06  1.480771E+06  1.480669E+06  1.497502E+06  1.481691E+06  1.480203E+06
 1.480358E+06  1.532485E+06  1.490709E+06  1.491191E+06  1.485355E+06  1.487183E+06  1.489223E+06  1.485678E+06  1.482285E+06  1.489046E+06
 1.486331E+06  1.479431E+06  1.521579E+06  1.499377E+06  1.494220E+06  1.514632E+06  1.484367E+06  1.482046E+06  1.483725E+06  1.485562E+06
 1.487042E+06  1.483060E+06  1.489176E+06  1.483186E+06  1.557132E+06  1.480983E+06  1.479866E+06  1.486921E+06  1.479121E+06  1.489597E+06
 1.506124E+06  1.561345E+06  1.512013E+06  1.549949E+06  1.523794E+06  1.546904E+06  1.532951E+06  1.529171E+06  1.502666E+06  1.535816E+06
 1.560449E+06  1.473960E+06  1.515993E+06  1.507612E+06  1.474283E+06  1.473672E+06  1.475638E+06  1.481512E+06  1.473875E+06  1.485065E+06
 1.472730E+06  1.476504E+06  1.472628E+06  1.476656E+06  1.490873E+06  1.473082E+06  1.480246E+06  1.473956E+06  1.473976E+06  1.476026E+06
 1.473649E+06  1.519234E+06  1.479908E+06  1.481099E+06  1.484246E+06  1.487928E+06  1.473975E+06  1.476994E+06  1.489241E+06  1.472983E+06
 1.501422E+06  1.493575E+06  1.475980E+06  1.477223E+06  1.471998E+06  1.476228E+06  1.486464E+06  1.482172E+06  1.477269E+06  1.498376E+06
 1.492011E+06  1.495463E+06  1.485360E+06  1.472289E+06  1.472079E+06  1.471521E+06  1.483021E+06  1.476198E+06  1.472000E+06  1.473086E+06
 1.472338E+06  1.477030E+06  1.471247E+06  1.478428E+06  1.471804E+06  1.493132E+06  1.477565E+06  1.473739E+06  1.474069E+06  1.557922E+06
 1.474693E+06  1.477197E+06  1.470966E+06  1.476585E+06  1.483773E+06  1.496937E+06  1.473108E+06  1.479534E+06  1.475713E+06  1.480579E+06
 1.487939E+06  1.472078E+06  1.471945E+06  1.481398E+06  1.470605E+06  1.471296E+06  1.471532E+06  1.472049E+06  1.470488E+06  1.490776E+06
 1.472666E+06  1.477826E+06  1.473735E+06  1.472996E+06  1.484912E+06  1.552979E+06  1.469951E+06  1.470595E+06  1.479784E+06  1.480227E+06
 1.488925E+06  1.470525E+06  1.474604E+06  1.486892E+06  1.469879E+06  1.471818E+06  1.521359E+06  1.469695E+06  1.474085E+06  1.469962E+06
 1.508170E+06  1.503182E+06  1.470122E+06  1.473364E+06  1.474031E+06  1.483664E+06  1.472736E+06  1.485684E+06  1.488636E+06  1.477939E+06
 1.470519E+06  1.475585E+06  1.476650E+06  1.482173E+06  1.469684E+06  1.476011E+06  1.474385E+06  1.470427E+06  1.478465E+06  1.469984E+06
 1.469483E+06  1.468834E+06  1.468951E+06  1.484878E+06  1.502467E+06  1.556757E+06  1.556053E+06  1.477021E+06  1.472657E+06  1.470282E+06
 1.471063E+06  1.476775E+06  1.470287E+06  1.478517E+06  1.469307E+06  1.473350E+06  1.480774E+06  1.492595E+06  1.472618E+06  1.469641E+06
 1.468519E+06  1.493257E+06  1.498081E+06  1.469494E+06  1.475822E+06  1.470250E+06  1.478131E+06  1.477291E+06  1.474940E+06  1.529080E+06
 1.468533E+06  1.473727E+06  1.516981E+06  1.498318E+06  1.469340E+06  1.483367E+06  1.469542E+06  1.473771E+06  1.480800E+06  1.522627E+06
 1.481668E+06  1.472769E+06  1.479370E+06  1.489011E+06  1.476186E+06  1.468642E+06  1.468390E+06  1.478740E+06  1.467420E+06  1.494091E+06
 1.508005E+06  1.471220E+06  1.478302E+06  1.533108E+06  1.469637E+06  1.467805E+06  1.468868E+06  1.473750E+06  1.467206E+06  1.467007E+06
 1.470230E+06  1.467304E+06  1.490194E+06  1.479078E+06  1.485080E+06  1.466778E+06  1.481593E+06  1.494255E+06  1.466816E+06  1.469341E+06
 1.466549E+06  1.466986E+06  1.470820E+06  1.467708E+06  1.470976E+06  1.485448E+06  1.474671E+06  1.466134E+06  1.470188E+06  1.476684E+06
 1.475579E+06  1.468413E+06  1.485787E+06  1.476442E+06  1.465795E+06  1.467345E+06  1.470486E+06  1.469324E+06  1.471385E+06  1.531729E+06
 1.487653E+06  1.468350E+06  1.465395E+06  1.469730E+06  1.465475E+06  1.473812E+06  1.489164E+06  1.468977E+06  1.466188E+06  1.465821E+06
 1.472632E+06  1.467327E+06  1.465166E+06  1.482493E+06  1.465421E+06  1.465885E+06  1.471464E+06  1.466359E+06  1.467366E+06  1.464895E+06
 1.465067E+06  1.474225E+06  1.468003E+06  1.470457E+06  1.506500E+06  1.464226E+06  1.512377E+06  1.534267E+06  1.468957E+06  1.496440E+06
 1.481469E+06  1.517974E+06  1.464094E+06  1.463426E+06  1.463528E+06  1.463927E+06  1.499161E+06  1.470852E+06  1.467073E+06  1.478014E+06
 1.488577E+06  1.463274E+06  1.472695E+06  1.469169E+06  1.471239E+06  1.491977E+06  1.467545E+06  1.518436E+06  1.512387E+06  1.537737E+06
 1.484193E+06  1.500287E+06  1.474794E+06  1.478635E+06  1.467919E+06  1.477572E+06  1.463720E+06  1.467499E+06  1.469078E+06  1.461507E+06
 1.461365E+06  1.465266E+06  1.463999E+06  1.475736E+06  1.480510E+06  1.462874E+06  1.461192E+06  1.475325E+06  1.465912E+06  1.491773E+06
 1.460729E+06  1.471588E+06  1.460340E+06  1.462396E+06  1.460406E+06  1.467498E+06  1.460127E+06  1.465965E+06  1.530887E+06  1.461565E+06
 1.459937E+06  1.472593E+06  1.461662E+06  1.460586E+06  1.504596E+06  1.464705E+06  1.480407E+06  1.477870E+06  1.462865E+06  1.459469E+06
 1.468056E+06  1.460353E+06  1.459742E+06  1.460678E+06  1.462739E+06  1.468705E+06  1.461709E+06  1.471999E+06  1.472569E+06  1.458795E+06
 1.464321E+06  1.494124E+06  1.459796E+06  1.486928E+06  1.459174E+06  1.461244E+06  1.458501E+06  1.465950E+06  1.481168E+06  1.457206E+06
 1.483744E+06  1.463917E+06  1.479077E+06  1.506410E+06  1.461814E+06  1.460959E+06  1.462201E+06  1.468087E+06  1.500255E+06  1.464233E+06
 1.469405E+06  1.514503E+06  1.482704E+06  1.486202E+06  1.459187E+06  1.536339E+06  1.494353E+06  1.465573E+06  1.455934E+06  1.457659E+06
 1.489321E+06  1.456050E+06  1.457392E+06  1.466155E+06  1.520928E+06  1.458101E+06  1.473631E+06  1.456140E+06  1.455307E+06  1.454787E+06
 1.459243E+06  1.455412E+06  1.455093E+06  1.474737E+06  1.460605E+06  1.460339E+06  1.454666E+06  1.462094E+06  1.477654E+06  1.453839E+06
 1.460844E+06  1.454294E+06  1.453984E+06  1.474610E+06  1.455533E+06  1.528017E+06  1.463101E+06  1.456448E+06  1.470565E+06  1.495032E+06
 1.466078E+06  1.461582E+06  1.455451E+06  1.468954E+06  1.454389E+06  1.453505E+06  1.453728E+06  1.455206E+06  1.452698E+06  1.459249E+06
 1.470380E+06  1.456416E+06  1.504400E+06  1.452753E+06  1.466456E+06  1.461698E+06  1.455554E+06  1.508230E+06  1.459166E+06  1.535218E+06
 1.451830E+06  1.462562E+06  1.467705E+06  1.480636E+06  1.460030E+06  1.484620E+06  1.452703E+06  1.500073E+06  1.513193E+06  1.456743E+06
 1.456264E+06  1.454184E+06  1.451781E+06  1.454511E+06  1.476414E+06  1.496093E+06  1.465129E+06  1.473156E+06  1.486523E+06  1.462135E+06
 1.450768E+06  1.461379E+06  1.475414E+06  1.451686E+06  1.459982E+06  1.448578E+06  1.448990E+06  1.532197E+06  1.489423E+06  1.480340E+06
 1.518858E+06  1.478195E+06  1.448323E+06  1.467366E+06  1.454013E+06  1.483724E+06  1.533000E+06  1.532509E+06  1.452400E+06  1.447185E+06
 1.447009E+06  1.448037E+06  1.454027E+06  1.450362E+06  1.451671E+06  1.446666E+06  1.446777E+06  1.467167E+06  1.506603E+06  1.467967E+06
 1.532754E+06  1.533386E+06  1.470409E+06  1.454574E+06  1.447233E+06  1.448501E+06  1.446529E+06  1.456691E+06  1.452609E+06  1.455536E+06
 1.447067E+06  1.523688E+06  1.450574E+06  1.445291E+06  1.447029E+06  1.445700E+06  1.444892E+06  1.452666E+06  1.447734E+06  1.459162E+06
 1.443974E+06  1.462882E+06  1.493041E+06  1.446736E+06  1.453341E+06  1.473855E+06  1.455860E+06  1.447784E+06  1.454490E+06  1.506031E+06
 1.459444E+06  1.443589E+06  1.484596E+06  1.455520E+06  1.492477E+06  1.496018E+06  1.457309E+06  1.447418E+06  1.517533E+06  1.445351E+06
 1.508523E+06  1.443073E+06  1.460538E+06  1.479525E+06  1.475675E+06  1.464708E+06  1.448847E+06  1.443249E+06  1.483492E+06  1.466723E+06
 1.440182E+06  1.439959E+06  1.445855E+06  1.440798E+06  1.441926E+06  1.440149E+06  1.468000E+06  1.443858E+06  1.462153E+06  1.452282E+06
 1.438133E+06  1.442759E+06  1.496659E+06  1.472509E+06  1.458888E+06  1.437685E+06  1.437613E+06  1.440191E+06  1.436967E+06  1.440586E+06
 1.446846E+06  1.436572E+06  1.466190E+06  1.436459E+06  1.439863E+06  1.440334E+06  1.443503E+06  1.438047E+06  1.447156E+06  1.449139E+06
 1.435716E+06  1.443798E+06  1.450939E+06  1.437068E+06  1.481416E+06  1.515749E+06  1.442390E+06  1.492842E+06  1.452459E+06  1.445599E+06
 1.449439E+06  1.452779E+06  1.480248E+06  1.434736E+06  1.466392E+06  1.456931E+06  1.471771E+06  1.438078E+06  1.431047E+06  1.502635E+06
 1.453676E+06  1.434168E+06  1.469866E+06  1.457177E+06  1.431697E+06  1.430352E+06  1.494157E+06  1.480247E+06  1.461982E+06  1.431878E+06
 1.434096E+06  1.428518E+06  1.442768E+06  1.428581E+06  1.434664E+06  1.429434E+06  1.440147E+06  1.428202E+06  1.432204E+06  1.437328E+06
 1.500849E+06  1.456143E+06  1.448583E+06  1.430248E+06  1.508825E+06  1.480317E+06  1.426079E+06  1.426648E+06  1.444202E+06  1.434080E+06
 1.488806E+06  1.434137E+06  1.436574E+06  1.470241E+06  1.510355E+06  1.425876E+06  1.459645E+06  1.437779E+06  1.510964E+06  1.441038E+06
 1.444548E+06  1.424758E+06  1.447180E+06  1.458539E+06  1.478569E+06  1.466229E+06  1.419728E+06  1.425217E+06  1.426447E+06  1.425882E+06
 1.420640E+06  1.427491E+06  1.497287E+06  1.420307E+06  1.449001E+06  1.430231E+06  1.444567E+06  1.508501E+06  1.505752E+06  1.418514E+06
 1.422344E+06  1.427338E+06  1.432099E+06  1.459566E+06  1.417112E+06  1.424628E+06  1.415950E+06  1.417997E+06  1.434126E+06  1.437418E+06
 1.414838E+06  1.463976E+06  1.446270E+06  1.477033E+06  1.468160E+06  1.416420E+06  1.424387E+06  1.451112E+06  1.416229E+06  1.447492E+06
 1.477697E+06  1.426181E+06  1.420977E+06  1.494054E+06  1.492374E+06  1.431970E+06  1.435613E+06  1.428488E+06  1.412374E+06  1.413413E+06
 1.479866E+06  1.416638E+06  1.410645E+06  1.452775E+06  1.437420E+06  1.462557E+06  1.407823E+06  1.413270E+06  1.408185E+06  1.406720E+06
 1.418710E+06  1.447278E+06  1.420013E+06  1.405905E+06  1.494867E+06  1.422240E+06  1.409521E+06  1.406874E+06  1.412229E+06  1.429730E+06
 1.479503E+06  1.425794E+06  1.435747E+06  1.410647E+06  1.462100E+06  1.450921E+06  1.434175E+06  1.460033E+06  1.447274E+06  1.403427E+06
 1.410945E+06  1.413822E+06  1.404274E+06  1.402284E+06  1.477396E+06  1.436979E+06  1.419298E+06  1.400076E+06  1.399050E+06  1.487646E+06
 1.400503E+06  1.415433E+06  1.425482E+06  1.403778E+06  1.397594E+06  1.490525E+06  1.489692E+06  1.492006E+06  1.493127E+06  1.396945E+06
 1.464190E+06  1.405608E+06  1.446754E+06  1.462181E+06  1.437636E+06  1.421890E+06  1.432704E+06  1.394870E+06  1.400896E+06  1.405298E+06
 1.398111E+06  1.413921E+06  1.395199E+06  1.406878E+06  1.422777E+06  1.422614E+06  1.476091E+06  1.396952E+06  1.401829E+06  1.393344E+06
 1.390359E+06  1.410947E+06  1.441965E+06  1.391288E+06  1.390183E+06  1.389149E+06  1.446778E+06  1.449637E+06  1.388281E+06  1.475967E+06
 1.389248E+06  1.403610E+06  1.430620E+06  1.422930E+06  1.463033E+06  1.390280E+06  1.411139E+06  1.394749E+06  1.409732E+06  1.478559E+06
 1.384146E+06  1.419638E+06  1.389825E+06  1.382925E+06  1.433277E+06  1.425727E+06  1.464031E+06  1.455228E+06  1.390598E+06  1.381356E+06
 1.394244E+06  1.394455E+06  1.385629E+06  1.444945E+06  1.410401E+06  1.383914E+06  1.399604E+06  1.380002E+06  1.409645E+06  1.382091E+06
 1.396759E+06  1.379500E+06  1.381677E+06  1.380003E+06  1.384565E+06  1.447249E+06  1.399543E+06  1.427764E+06  1.437063E+06  1.377438E+06
 1.415906E+06  1.390018E+06  1.414397E+06  1.385310E+06  1.474603E+06  1.420992E+06  1.375076E+06  1.398744E+06  1.406830E+06  1.429633E+06
 1.373380E+06  1.381354E+06  1.385163E+06  1.378744E+06  1.459083E+06  1.376622E+06  1.406057E+06  1.400288E+06  1.394318E+06  1.374527E+06
 1.371329E+06  1.376712E+06  1.370899E+06  1.385489E+06  1.415198E+06  1.370301E+06  1.377491E+06  1.389231E+06  1.380896E+06  1.371344E+06
 1.369402E+06  1.475262E+06  1.434460E+06  1.450730E+06  1.386101E+06  1.377611E+06  1.370778E+06  1.396756E+06  1.366954E+06  1.371285E+06
 1.447667E+06  1.459119E+06  1.433665E+06  1.368193E+06  1.369953E+06  1.372419E+06  1.371501E+06  1.462327E+06  1.418563E+06  1.402196E+06
 1.408223E+06  1.365541E+06  1.388145E+06  1.379098E+06  1.401663E+06  1.477403E+06  1.475008E+06  1.381367E+06  1.464113E+06  1.412109E+06
 1.403427E+06  1.438182E+06  1.373376E+06  1.374207E+06  1.389506E+06  1.362578E+06  1.368263E+06  1.387884E+06  1.394057E+06  1.375900E+06
 1.420688E+06  1.365857E+06  1.363514E+06  1.435941E+06  1.362485E+06  1.368595E+06  1.413215E+06  1.360829E+06  1.360688E+06  1.391474E+06
 1.359559E+06  1.359673E+06  1.359444E+06  1.464262E+06  1.379387E+06  1.380657E+06  1.362268E+06  1.364090E+06  1.416971E+06  1.371221E+06
 1.367384E+06  1.406324E+06  1.359637E+06  1.373768E+06  1.368508E+06  1.399605E+06  1.357873E+06  1.357292E+06  1.363799E+06  1.384710E+06
 1.358703E+06  1.360516E+06  1.366590E+06  1.399842E+06  1.371574E+06  1.358110E+06  1.380430E+06  1.360954E+06  1.390357E+06  1.358935E+06
 1.421619E+06  1.356075E+06  1.408324E+06  1.376786E+06  1.426059E+06  1.392911E+06  1.473306E+06  1.356984E+06  1.374089E+06  1.367932E+06
 1.378213E+06  1.365246E+06  1.416894E+06  1.370679E+06  1.359605E+06  1.400063E+06  1.380963E+06  1.361978E+06  1.436587E+06  1.353211E+06
 1.354228E+06  1.386518E+06  1.371051E+06  1.365498E+06  1.352702E+06  1.446843E+06  1.445604E+06  1.382814E+06  1.389980E+06  1.356544E+06
 1.402440E+06  1.410001E+06  1.357609E+06  1.350805E+06  1.367058E+06  1.350951E+06  1.351070E+06  1.349749E+06  1.351618E+06  1.433233E+06
 1.349215E+06  1.350152E+06  1.354960E+06  1.358970E+06  1.357018E+06  1.378950E+06  1.390680E+06  1.363855E+06  1.360702E+06  1.348997E+06
 1.358273E+06  1.352182E+06  1.349512E+06  1.403459E+06  1.395617E+06  1.358754E+06  1.422549E+06  1.369157E+06  1.367178E+06  1.350117E+06
 1.352031E+06  1.387002E+06  1.381141E+06  1.370864E+06  1.352461E+06  1.347162E+06  1.375651E+06  1.389578E+06  1.348382E+06  1.349059E+06
 1.349258E+06  1.371618E+06  1.352455E+06  1.450132E+06  1.366357E+06  1.357587E+06  1.359347E+06  1.363969E+06  1.358384E+06  1.346966E+06
 1.397596E+06  1.360202E+06  1.375146E+06  1.370442E+06  1.410436E+06  1.424180E+06  1.379750E+06  1.344332E+06  1.389145E+06  1.347966E+06
 1.414305E+06  1.359531E+06  1.344453E+06  1.379229E+06  1.343693E+06  1.459873E+06  1.342927E+06  1.400947E+06  1.344891E+06  1.365861E+06
 1.343127E+06  1.349481E+06  1.351737E+06  1.359384E+06  1.350449E+06  1.347674E+06  1.344060E+06  1.341631E+06  1.341549E+06  1.381302E+06
 1.400140E+06  1.404400E+06  1.372869E+06  1.351290E+06  1.345818E+06  1.341160E+06  1.389310E+06  1.379204E+06  1.346566E+06  1.367224E+06
 1.360195E+06  1.343161E+06  1.341095E+06  1.448186E+06  1.362148E+06  1.339888E+06  1.351314E+06  1.343646E+06  1.353706E+06  1.368551E+06
 1.339510E+06  1.340379E+06  1.348002E+06  1.367385E+06  1.339062E+06  1.340679E+06  1.346285E+06  1.350527E+06  1.348890E+06  1.379636E+06
 1.370169E+06  1.361972E+06  1.428510E+06  1.359137E+06  1.356157E+06  1.362982E+06  1.343220E+06  1.386350E+06  1.355625E+06  1.458699E+06
 1.339061E+06  1.341720E+06  1.380329E+06  1.338189E+06  1.338624E+06  1.340607E+06  1.339121E+06  1.336894E+06  1.349717E+06  1.342474E+06
 1.339093E+06  1.337545E+06  1.351156E+06  1.380198E+06  1.338923E+06  1.387565E+06  1.345218E+06  1.348786E+06  1.355633E+06  1.357176E+06
 1.342495E+06  1.337949E+06  1.419766E+06  1.410058E+06  1.389173E+06  1.371626E+06  1.338803E+06  1.435310E+06  1.350899E+06  1.336700E+06
 1.334571E+06  1.396197E+06  1.337246E+06  1.367541E+06  1.337519E+06  1.344685E+06  1.370633E+06  1.359678E+06  1.334589E+06  1.338956E+06
 1.428165E+06  1.334288E+06  1.367341E+06  1.338519E+06  1.449657E+06  1.348833E+06  1.339694E+06  1.360534E+06  1.341255E+06  1.349907E+06
 1.340041E+06  1.353560E+06  1.335109E+06  1.351881E+06  1.388314E+06  1.356924E+06  1.335706E+06  1.338609E+06  1.341334E+06  1.410470E+06
 1.398680E+06  1.349716E+06  1.362140E+06  1.371057E+06  1.357560E+06  1.400991E+06  1.341768E+06  1.369974E+06  1.353068E+06  1.342843E+06
 1.331717E+06  1.349138E+06  1.331547E+06  1.331690E+06  1.359046E+06  1.390048E+06  1.344628E+06  1.330920E+06  1.360654E+06  1.334884E+06
 1.354813E+06  1.353515E+06  1.353156E+06  1.330897E+06  1.334754E+06  1.331528E+06  1.331784E+06  1.331188E+06  1.331705E+06  1.371760E+06
 1.375194E+06  1.361876E+06  1.357221E+06  1.331928E+06  1.341330E+06  1.348226E+06  1.339583E+06  1.343335E+06  1.370132E+06  1.331371E+06
 1.432635E+06  1.337224E+06  1.331747E+06  1.329769E+06  1.359666E+06  1.329273E+06  1.328998E+06  1.330823E+06  1.337571E+06  1.330956E+06
 1.334148E+06  1.341060E+06  1.379136E+06  1.343418E+06  1.344843E+06  1.334478E+06  1.331161E+06  1.333173E+06  1.332147E+06  1.361575E+06
 1.333583E+06  1.331056E+06  1.448151E+06  1.363030E+06  1.339910E+06  1.328714E+06  1.334308E+06  1.338036E+06  1.371822E+06  1.347650E+06
 1.329565E+06  1.327265E+06  1.328380E+06  1.331982E+06  1.330999E+06  1.338009E+06  1.334698E+06  1.373843E+06  1.327126E+06  1.327388E+06
 1.352330E+06  1.339818E+06  1.378011E+06  1.414970E+06  1.345837E+06  1.348389E+06  1.329729E+06  1.342537E+06  1.353304E+06  1.386396E+06