# vtk DataFile Version 2.0
PFLOTRAN output
ASCII
DATASET UNSTRUCTURED_GRID
CELL_DATA   14538
SCALARS Liquid_Pressure      float 1
LOOKUP_TABLE default
 2.000000E+06  2.000000E+06  2.000000E+06  2.000000E+06  2.000000E+06  2.000000E+06  2.000000E+06  2.000000E+06  2.000000E+06  2.000000E+06
 2.000000E+06  2.000000E+06  2.000000E+06  2.000000E+06  2.000000E+06  2.000000E+06  2.000000E+06  2.000000E+06  1.973758E+06  1.966497E+06
 1.963627E+06  1.965026E+06  1.963796E+06  1.966371E+06  1.961697E+06  1.959951E+06  1.960559E+06  1.959030E+06  1.959974E+06  1.957028E+06
 1.953021E+06  1.953348E+06  1.947038E+06  1.938828E+06  1.941947E+06  1.933795E+06  1.933968E+06  1.921781E+06  1.923280E+06  1.924009E+06
 1.921895E+06  1.920281E+06  1.914357E+06  1.915818E+06  1.918910E+06  1.913278E+06  1.923418E+06  1.908437E+06  1.907499E+06  1.910159E+06
 1.908526E+06  1.899449E+06  1.891089E+06  1.893796E+06  1.890163E+06  1.886213E+06  1.884109E+06  1.882939E+06  1.880266E+06  1.877328E+06
 1.878147E+06  1.874826E+06  1.873393E+06  1.868641E+06  1.871549E+06  1.861688E+06  1.861777E+06  1.862012E+06  1.862764E+06  1.857357E+06
 1.853767E+06  1.850414E+06  1.839669E+06  1.836579E+06  1.841090E+06  1.845007E+06  1.836120E+06  1.832137E+06  1.833288E+06  1.833067E+06
 1.835323E+06  1.831553E+06  1.834298E+06  1.827715E+06  1.829368E+06  1.816422E+06  1.816046E+06  1.812041E+06  1.810054E+06  1.808702E+06
 1.805822E+06  1.808697E+06  1.802368E+06  1.807185E+06  1.793012E+06  1.796747E+06  1.791938E+06  1.802985E+06  1.798500E+06  1.802591E+06
 1.798818E+06  1.799737E+06  1.791336E+06  1.784264E+06  1.784726E+06  1.771294E+06  1.770732E+06  1.778244E+06  1.780526E+06  1.771504E+06
 1.773480E+06  1.763542E+06  1.761243E+06  1.773644E+06  1.760538E+06  1.761604E+06  1.762244E+06  1.768354E+06  1.759248E+06  1.765451E+06
 1.744526E+06  1.747961E+06  1.744276E+06  1.748509E+06  1.753194E+06  1.747148E+06  1.762035E+06  1.762871E+06  1.737332E+06  1.732080E+06
 1.732186E+06  1.749294E+06  1.727204E+06  1.734165E+06  1.722823E+06  1.739872E+06  1.738986E+06  1.744696E+06  1.723005E+06  1.723517E+06
 1.736533E+06  1.729086E+06  1.723671E+06  1.716453E+06  1.711052E+06  1.707029E+06  1.713110E+06  1.706687E+06  1.730918E+06  1.731444E+06
 1.730955E+06  1.730381E+06  1.715612E+06  1.702696E+06  1.705120E+06  1.706650E+06  1.695515E+06  1.700953E+06  1.712858E+06  1.690691E+06
 1.691297E+06  1.711026E+06  1.693412E+06  1.706009E+06  1.689909E+06  1.682608E+06  1.693428E+06  1.679382E+06  1.695181E+06  1.691943E+06
 1.706472E+06  1.704280E+06  1.681400E+06  1.691268E+06  1.674309E+06  1.671668E+06  1.699862E+06  1.669993E+06  1.698607E+06  1.665925E+06
 1.683618E+06  1.674192E+06  1.663476E+06  1.666662E+06  1.668432E+06  1.663125E+06  1.658799E+06  1.668720E+06  1.656593E+06  1.661326E+06
 1.661385E+06  1.673979E+06  1.686134E+06  1.686652E+06  1.681414E+06  1.652578E+06  1.670764E+06  1.664230E+06  1.661770E+06  1.675787E+06
 1.650164E+06  1.643867E+06  1.647408E+06  1.641961E+06  1.675532E+06  1.678506E+06  1.666913E+06  1.645082E+06  1.640916E+06  1.637263E+06
 1.654781E+06  1.640660E+06  1.636007E+06  1.646770E+06  1.637265E+06  1.660443E+06  1.641027E+06  1.653148E+06  1.640146E+06  1.626529E+06
 1.632652E+06  1.639371E+06  1.622804E+06  1.625549E+06  1.650274E+06  1.621981E+06  1.636668E+06  1.662715E+06  1.621945E+06  1.644853E+06
 1.627959E+06  1.619950E+06  1.662075E+06  1.620706E+06  1.662434E+06  1.662828E+06  1.635393E+06  1.623884E+06  1.635293E+06  1.649283E+06
 1.621159E+06  1.659516E+06  1.659654E+06  1.625310E+06  1.609589E+06  1.611184E+06  1.621459E+06  1.610027E+06  1.616207E+06  1.646971E+06
 1.613331E+06  1.646914E+06  1.628021E+06  1.635805E+06  1.605056E+06  1.633923E+06  1.608291E+06  1.608308E+06  1.607094E+06  1.610764E+06
 1.600335E+06  1.643710E+06  1.601147E+06  1.621427E+06  1.616475E+06  1.602778E+06  1.605547E+06  1.611817E+06  1.602358E+06  1.633682E+06
 1.596063E+06  1.594465E+06  1.621907E+06  1.595173E+06  1.594806E+06  1.596078E+06  1.610565E+06  1.591119E+06  1.590481E+06  1.604127E+06
 1.611793E+06  1.590050E+06  1.604284E+06  1.599071E+06  1.624536E+06  1.594889E+06  1.592146E+06  1.613641E+06  1.582749E+06  1.584777E+06
 1.588389E+06  1.590686E+06  1.596334E+06  1.618669E+06  1.625241E+06  1.634149E+06  1.583655E+06  1.585668E+06  1.582925E+06  1.605203E+06
 1.591941E+06  1.583586E+06  1.581116E+06  1.578559E+06  1.582755E+06  1.609915E+06  1.595840E+06  1.579439E+06  1.624526E+06  1.583425E+06
 1.599729E+06  1.584583E+06  1.574707E+06  1.602024E+06  1.573273E+06  1.570936E+06  1.624206E+06  1.599355E+06  1.581477E+06  1.579896E+06
 1.591864E+06  1.576573E+06  1.586423E+06  1.572317E+06  1.625588E+06  1.583951E+06  1.586752E+06  1.569965E+06  1.567064E+06  1.567072E+06
 1.568137E+06  1.569100E+06  1.572450E+06  1.579327E+06  1.565180E+06  1.588937E+06  1.600971E+06  1.571856E+06  1.619559E+06  1.584737E+06
 1.612824E+06  1.570172E+06  1.566447E+06  1.564073E+06  1.613518E+06  1.561152E+06  1.574636E+06  1.560848E+06  1.559668E+06  1.603205E+06
 1.565579E+06  1.560526E+06  1.557259E+06  1.564506E+06  1.576636E+06  1.617928E+06  1.617367E+06  1.585351E+06  1.561862E+06  1.587139E+06
 1.555236E+06  1.603250E+06  1.562031E+06  1.558876E+06  1.564646E+06  1.558757E+06  1.565247E+06  1.557217E+06  1.570045E+06  1.578619E+06
 1.561987E+06  1.587566E+06  1.552977E+06  1.566160E+06  1.560092E+06  1.590619E+06  1.571522E+06  1.557104E+06  1.551192E+06  1.550207E+06
 1.548026E+06  1.593118E+06  1.585066E+06  1.560802E+06  1.548258E+06  1.561621E+06  1.556692E+06  1.552827E+06  1.555109E+06  1.547549E+06
 1.547973E+06  1.549806E+06  1.554531E+06  1.597905E+06  1.550465E+06  1.561595E+06  1.547608E+06  1.564680E+06  1.578619E+06  1.546826E+06
 1.567234E+06  1.547530E+06  1.545802E+06  1.547185E+06  1.544495E+06  1.549178E+06  1.550084E+06  1.548683E+06  1.583773E+06  1.569345E+06
 1.565319E+06  1.566404E+06  1.541236E+06  1.553555E+06  1.539430E+06  1.551991E+06  1.540757E+06  1.545339E+06  1.539605E+06  1.540486E+06
 1.557324E+06  1.538398E+06  1.569220E+06  1.548725E+06  1.547312E+06  1.542569E+06  1.540153E+06  1.573567E+06  1.537112E+06  1.554692E+06
 1.552015E+06  1.546934E+06  1.539461E+06  1.540319E+06  1.535302E+06  1.548106E+06  1.539948E+06  1.535768E+06  1.534601E+06  1.542162E+06
 1.565572E+06  1.541906E+06  1.540441E+06  1.541974E+06  1.539498E+06  1.541250E+06  1.553323E+06  1.543939E+06  1.561009E+06  1.531352E+06
 1.531198E+06  1.579145E+06  1.530286E+06  1.534256E+06  1.533654E+06  1.533117E+06  1.581936E+06  1.550317E+06  1.530768E+06  1.529938E+06
 1.530149E+06  1.571569E+06  1.555717E+06  1.529007E+06  1.570333E+06  1.535555E+06  1.547337E+06  1.538604E+06  1.534397E+06  1.529849E+06
 1.545636E+06  1.530031E+06  1.530023E+06  1.528668E+06  1.549544E+06  1.541600E+06  1.538251E+06  1.551183E+06  1.535276E+06  1.525132E+06
 1.531531E+06  1.527084E+06  1.532949E+06  1.584150E+06  1.541108E+06  1.529165E+06  1.526698E+06  1.527248E+06  1.578577E+06  1.529111E+06
 1.530138E+06  1.560102E+06  1.527524E+06  1.553791E+06  1.531727E+06  1.588801E+06  1.530499E+06  1.534440E+06  1.528007E+06  1.523513E+06
 1.536910E+06  1.559437E+06  1.541592E+06  1.526945E+06  1.540014E+06  1.527648E+06  1.563043E+06  1.592871E+06  1.593436E+06  1.520894E+06
 1.588320E+06  1.521912E+06  1.533405E+06  1.533312E+06  1.544500E+06  1.520307E+06  1.519740E+06  1.520277E+06  1.528723E+06  1.519220E+06
 1.519296E+06  1.582388E+06  1.589741E+06  1.529463E+06  1.521521E+06  1.528623E+06  1.519280E+06  1.518744E+06  1.527459E+06  1.568256E+06
 1.526572E+06  1.517444E+06  1.537187E+06  1.518020E+06  1.525195E+06  1.528753E+06  1.523347E+06  1.524334E+06  1.523631E+06  1.516599E+06
 1.519604E+06  1.589958E+06  1.589800E+06  1.549942E+06  1.549555E+06  1.531524E+06  1.543321E+06  1.519302E+06  1.523196E+06  1.519450E+06
 1.517194E+06  1.544041E+06  1.536185E+06  1.531420E+06  1.536502E+06  1.527704E+06  1.521401E+06  1.519879E+06  1.520374E+06  1.523122E+06
 1.516722E+06  1.515223E+06  1.539111E+06  1.522424E+06  1.516451E+06  1.520522E+06  1.517455E+06  1.516208E+06  1.517692E+06  1.529560E+06
 1.514911E+06  1.523879E+06  1.512482E+06  1.514158E+06  1.519448E+06  1.558930E+06  1.524982E+06  1.520957E+06  1.511785E+06  1.525093E+06
 1.513575E+06  1.511834E+06  1.524182E+06  1.515132E+06  1.511104E+06  1.511128E+06  1.526777E+06  1.517682E+06  1.570968E+06  1.509547E+06
 1.514425E+06  1.550930E+06  1.559659E+06  1.510447E+06  1.517091E+06  1.511863E+06  1.545322E+06  1.580713E+06  1.508539E+06  1.514031E+06
 1.508066E+06  1.508054E+06  1.514467E+06  1.507823E+06  1.551804E+06  1.563953E+06  1.514613E+06  1.524898E+06  1.512230E+06  1.519242E+06
 1.511667E+06  1.507183E+06  1.517886E+06  1.506856E+06  1.510552E+06  1.508173E+06  1.507293E+06  1.545074E+06  1.521358E+06  1.516254E+06
 1.517460E+06  1.537807E+06  1.509811E+06  1.536393E+06  1.531898E+06  1.513324E+06  1.528225E+06  1.523624E+06  1.510947E+06  1.514682E+06
 1.505916E+06  1.526971E+06  1.514600E+06  1.509925E+06  1.507767E+06  1.509436E+06  1.511288E+06  1.504919E+06  1.507445E+06  1.505827E+06
 1.510602E+06  1.512824E+06  1.505325E+06  1.504378E+06  1.505864E+06  1.506592E+06  1.506940E+06  1.516517E+06  1.506278E+06  1.529351E+06
 1.510413E+06  1.511282E+06  1.502924E+06  1.513143E+06  1.503252E+06  1.503838E+06  1.517695E+06  1.531476E+06  1.510253E+06  1.506896E+06
 1.521633E+06  1.504464E+06  1.535946E+06  1.501278E+06  1.503165E+06  1.516112E+06  1.513884E+06  1.536181E+06  1.524770E+06  1.514122E+06
 1.502013E+06  1.566355E+06  1.520228E+06  1.512792E+06  1.504718E+06  1.508010E+06  1.504864E+06  1.504392E+06  1.506137E+06  1.511300E+06
 1.516045E+06  1.500770E+06  1.505530E+06  1.503594E+06  1.501205E+06  1.509683E+06  1.504589E+06  1.507456E+06  1.498515E+06  1.503131E+06
 1.498652E+06  1.498312E+06  1.540718E+06  1.500948E+06  1.499894E+06  1.504761E+06  1.507166E+06  1.546378E+06  1.511115E+06  1.503039E+06
 1.498685E+06  1.498185E+06  1.500361E+06  1.504272E+06  1.510425E+06  1.501574E+06  1.499915E+06  1.500384E+06  1.551107E+06  1.503877E+06
 1.495391E+06  1.500026E+06  1.526711E+06  1.493580E+06  1.509239E+06  1.504725E+06  1.533813E+06  1.494118E+06  1.497536E+06  1.495309E+06
 1.513440E+06  1.494037E+06  1.494528E+06  1.500423E+06  1.507126E+06  1.514584E+06  1.493440E+06  1.510542E+06  1.506038E+06  1.532936E+06
 1.493191E+06  1.493300E+06  1.498777E+06  1.495157E+06  1.492901E+06  1.495174E+06  1.545169E+06  1.519123E+06  1.493279E+06  1.493984E+06
 1.494473E+06  1.506297E+06  1.495946E+06  1.512896E+06  1.492399E+06  1.515661E+06  1.503589E+06  1.507368E+06  1.492547E+06  1.519513E+06
 1.495333E+06  1.493587E+06  1.500858E+06  1.502486E+06  1.508649E+06  1.501397E+06  1.493551E+06  1.493110E+06  1.495698E+06  1.500735E+06
 1.497411E+06  1.497858E+06  1.502210E+06  1.553389E+06  1.497885E+06  1.509017E+06  1.497454E+06  1.499353E+06  1.490941E+06  1.536229E+06
 1.498155E+06  1.495984E+06  1.498674E+06  1.519356E+06  1.490303E+06  1.492832E+06  1.497970E+06  1.491007E+06  1.489825E+06  1.495042E+06
 1.514221E+06  1.492757E+06  1.496439E+06  1.489854E+06  1.489873E+06  1.502176E+06  1.495364E+06  1.493876E+06  1.525021E+06  1.491507E+06
 1.493794E+06  1.506705E+06  1.488824E+06  1.491788E+06  1.504526E+06  1.491946E+06  1.492226E+06  1.510220E+06  1.492692E+06  1.522453E+06
 1.488034E+06  1.488137E+06  1.488365E+06  1.487742E+06  1.487529E+06  1.488081E+06  1.501563E+06  1.499161E+06  1.500329E+06  1.491217E+06
 1.559742E+06  1.494331E+06  1.497078E+06  1.496323E+06  1.500104E+06  1.501025E+06  1.492931E+06  1.487442E+06  1.494481E+06  1.498133E+06
 1.488534E+06  1.488207E+06  1.486457E+06  1.492097E+06  1.496438E+06  1.488425E+06  1.487277E+06  1.485666E+06  1.491104E+06  1.488333E+06
 1.533368E+06  1.487585E+06  1.545692E+06  1.493580E+06  1.503545E+06  1.487048E+06  1.496424E+06  1.515473E+06  1.484853E+06  1.507275E+06
 1.491618E+06  1.486159E+06  1.484847E+06  1.488334E+06  1.491237E+06  1.509856E+06  1.493464E+06  1.489677E+06  1.503766E+06  1.495625E+06
 1.504473E+06  1.489617E+06  1.493195E+06  1.491821E+06  1.494437E+06  1.486548E+06  1.484567E+06  1.488419E+06  1.488567E+06  1.515470E+06
 1.538283E+06  1.485016E+06  1.493507E+06  1.486283E+06  1.484192E+06  1.484109E+06  1.491431E+06  1.484992E+06  1.499947E+06  1.502013E+06
 1.483927E+06  1.484332E+06  1.484922E+06  1.490416E+06  1.509221E+06  1.483361E+06  1.550177E+06  1.483566E+06  1.486148E+06  1.484066E+06
 1.498562E+06  1.483052E+06  1.484630E+06  1.482790E+06  1.485021E+06  1.524247E+06  1.483153E+06  1.485702E+06  1.482429E+06  1.485243E+06
 1.494310E+06  1.482518E+06  1.495452E+06  1.482458E+06  1.484093E+06  1.486239E+06  1.486434E+06  1.486569E+06  1.487634E+06  1.484388E+06
 1.483741E+06  1.482148E+06  1.489351E+06  1.481663E+06  1.486002E+06  1.481708E+06  1.501563E+06  1.481539E+06  1.483995E+06  1.483468E+06
 1.495444E+06  1.483294E+06  1.559908E+06  1.503365E+06  1.497295E+06  1.482015E+06  1.492854E+06  1.489418E+06  1.492210E+06  1.494846E+06
 1.486441E+06  1.508621E+06  1.480910E+06  1.493132E+06  1.488634E+06  1.480347E+06  1.480246E+06  1.497091E+06  1.481269E+06  1.479779E+06
 1.479934E+06  1.532096E+06  1.490292E+06  1.490775E+06  1.484935E+06  1.486763E+06  1.488805E+06  1.485258E+06  1.481862E+06  1.488630E+06
 1.485912E+06  1.479006E+06  1.521183E+06  1.498968E+06  1.493805E+06  1.514231E+06  1.483946E+06  1.481623E+06  1.483304E+06  1.485141E+06
 1.486624E+06  1.482638E+06  1.488758E+06  1.482765E+06  1.556754E+06  1.480560E+06  1.479441E+06  1.486502E+06  1.478696E+06  1.489180E+06
 1.505717E+06  1.560972E+06  1.511611E+06  1.549570E+06  1.523397E+06  1.546521E+06  1.532562E+06  1.528778E+06  1.502259E+06  1.535426E+06
 1.560074E+06  1.473532E+06  1.515591E+06  1.507206E+06  1.473855E+06  1.473244E+06  1.475212E+06  1.481091E+06  1.473448E+06  1.484644E+06
 1.472302E+06  1.476078E+06  1.472199E+06  1.476230E+06  1.490456E+06  1.472654E+06  1.479823E+06  1.473529E+06  1.473549E+06  1.475600E+06
 1.473221E+06  1.518837E+06  1.479486E+06  1.480676E+06  1.483827E+06  1.487511E+06  1.473548E+06  1.476569E+06  1.488824E+06  1.472555E+06
 1.501012E+06  1.493162E+06  1.475555E+06  1.476798E+06  1.471569E+06  1.475801E+06  1.486046E+06  1.481750E+06  1.476845E+06  1.497966E+06
 1.491595E+06  1.495051E+06  1.484942E+06  1.471860E+06  1.471651E+06  1.471092E+06  1.482601E+06  1.475772E+06  1.471571E+06  1.472658E+06
 1.471909E+06  1.476605E+06  1.470817E+06  1.478004E+06  1.471376E+06  1.492717E+06  1.477141E+06  1.473312E+06  1.473641E+06  1.557543E+06
 1.474265E+06  1.476772E+06  1.470536E+06  1.476160E+06  1.483353E+06  1.496525E+06  1.472680E+06  1.479111E+06  1.475286E+06  1.480156E+06
 1.487522E+06  1.471649E+06  1.471517E+06  1.480976E+06  1.470176E+06  1.470867E+06  1.471103E+06  1.471620E+06  1.470058E+06  1.490361E+06
 1.472238E+06  1.477401E+06  1.473309E+06  1.472569E+06  1.484492E+06  1.552597E+06  1.469521E+06  1.470165E+06  1.479360E+06  1.479805E+06
 1.488508E+06  1.470095E+06  1.474177E+06  1.486474E+06  1.469449E+06  1.471389E+06  1.520962E+06  1.469265E+06  1.473657E+06  1.469532E+06
 1.507766E+06  1.502774E+06  1.469692E+06  1.472938E+06  1.473603E+06  1.483243E+06  1.472309E+06  1.485265E+06  1.488219E+06  1.477515E+06
 1.470090E+06  1.475159E+06  1.476224E+06  1.481751E+06  1.469255E+06  1.475585E+06  1.473959E+06  1.469997E+06  1.478041E+06  1.469554E+06
 1.469053E+06  1.468404E+06  1.468520E+06  1.484458E+06  1.502057E+06  1.556377E+06  1.555675E+06  1.476596E+06  1.472229E+06  1.469853E+06
 1.470634E+06  1.476350E+06  1.469858E+06  1.478094E+06  1.468877E+06  1.472922E+06  1.480351E+06  1.492181E+06  1.472191E+06  1.469212E+06
 1.468089E+06  1.492842E+06  1.497671E+06  1.469064E+06  1.475397E+06  1.469821E+06  1.477706E+06  1.476866E+06  1.474515E+06  1.528688E+06
 1.468103E+06  1.473300E+06  1.516581E+06  1.497906E+06  1.468910E+06  1.482947E+06  1.469113E+06  1.473345E+06  1.480378E+06  1.522229E+06
 1.481246E+06  1.472342E+06  1.478946E+06  1.488594E+06  1.475760E+06  1.468211E+06  1.467959E+06  1.478317E+06  1.466989E+06  1.493678E+06
 1.507599E+06  1.470791E+06  1.477878E+06  1.532719E+06  1.469208E+06  1.467374E+06  1.468438E+06  1.473323E+06  1.466775E+06  1.466576E+06
 1.469801E+06  1.466873E+06  1.489778E+06  1.478656E+06  1.484662E+06  1.466346E+06  1.481172E+06  1.493841E+06  1.466385E+06  1.468911E+06
 1.466118E+06  1.466554E+06  1.470391E+06  1.467278E+06  1.470547E+06  1.485028E+06  1.474246E+06  1.465703E+06  1.469758E+06  1.476260E+06
 1.475154E+06  1.467983E+06  1.485369E+06  1.476016E+06  1.465363E+06  1.466914E+06  1.470057E+06  1.468895E+06  1.470957E+06  1.531335E+06
 1.487236E+06  1.467921E+06  1.464963E+06  1.469302E+06  1.465043E+06  1.473385E+06  1.488747E+06  1.468547E+06  1.465757E+06  1.465389E+06
 1.472204E+06  1.466897E+06  1.464734E+06  1.482073E+06  1.464989E+06  1.465453E+06  1.471036E+06  1.465927E+06  1.466935E+06  1.464462E+06
 1.464634E+06  1.473799E+06  1.467573E+06  1.470028E+06  1.506094E+06  1.463793E+06  1.511975E+06  1.533877E+06  1.468527E+06  1.496029E+06
 1.481047E+06  1.517575E+06  1.463661E+06  1.462993E+06  1.463095E+06  1.463494E+06  1.498751E+06  1.470424E+06  1.466642E+06  1.477590E+06
 1.488160E+06  1.462842E+06  1.472267E+06  1.468739E+06  1.470811E+06  1.491563E+06  1.467115E+06  1.518035E+06  1.511983E+06  1.537349E+06
 1.483773E+06  1.499876E+06  1.474368E+06  1.478212E+06  1.467490E+06  1.477149E+06  1.463288E+06  1.467068E+06  1.468649E+06  1.461073E+06
 1.460931E+06  1.464834E+06  1.463567E+06  1.475311E+06  1.480089E+06  1.462441E+06  1.460758E+06  1.474901E+06  1.465480E+06  1.491357E+06
 1.460295E+06  1.471161E+06  1.459905E+06  1.461962E+06  1.459971E+06  1.467069E+06  1.459692E+06  1.465535E+06  1.530492E+06  1.461132E+06
 1.459503E+06  1.472167E+06  1.461228E+06  1.460152E+06  1.504188E+06  1.464274E+06  1.479985E+06  1.477448E+06  1.462432E+06  1.459034E+06
 1.467626E+06  1.459919E+06  1.459307E+06  1.460244E+06  1.462306E+06  1.468277E+06  1.461277E+06  1.471571E+06  1.472143E+06  1.458360E+06
 1.463889E+06  1.493710E+06  1.459362E+06  1.486509E+06  1.458739E+06  1.460811E+06  1.458065E+06  1.465519E+06  1.480747E+06  1.456771E+06
 1.483325E+06  1.463485E+06  1.478656E+06  1.506005E+06  1.461382E+06  1.460526E+06  1.461768E+06  1.467659E+06  1.499846E+06  1.463801E+06
 1.468976E+06  1.514102E+06  1.482283E+06  1.485784E+06  1.458752E+06  1.535949E+06  1.493941E+06  1.465142E+06  1.455498E+06  1.457223E+06
 1.488905E+06  1.455614E+06  1.456957E+06  1.465725E+06  1.520531E+06  1.457666E+06  1.473206E+06  1.455704E+06  1.454870E+06  1.454351E+06
 1.458809E+06  1.454976E+06  1.454656E+06  1.474312E+06  1.460172E+06  1.459905E+06  1.454229E+06  1.461662E+06  1.477230E+06  1.453402E+06
 1.460412E+06  1.453857E+06  1.453547E+06  1.474186E+06  1.455097E+06  1.527620E+06  1.462670E+06  1.456013E+06  1.470138E+06  1.494618E+06
 1.465648E+06  1.461150E+06  1.455014E+06  1.468525E+06  1.453952E+06  1.453068E+06  1.453291E+06  1.454770E+06  1.452260E+06  1.458814E+06
 1.469952E+06  1.455981E+06  1.503993E+06  1.452315E+06  1.466027E+06  1.461265E+06  1.455118E+06  1.507823E+06  1.458731E+06  1.534827E+06
 1.451392E+06  1.462130E+06  1.467277E+06  1.480215E+06  1.459596E+06  1.484200E+06  1.452265E+06  1.499661E+06  1.512788E+06  1.456308E+06
 1.455829E+06  1.453748E+06  1.451343E+06  1.454075E+06  1.475991E+06  1.495681E+06  1.464698E+06  1.472731E+06  1.486104E+06  1.461702E+06
 1.450330E+06  1.460948E+06  1.474989E+06  1.451248E+06  1.459548E+06  1.448138E+06  1.448551E+06  1.531801E+06  1.489008E+06  1.479919E+06
 1.518458E+06  1.477772E+06  1.447883E+06  1.466938E+06  1.453577E+06  1.483305E+06  1.532607E+06  1.532116E+06  1.451964E+06  1.446745E+06
 1.446569E+06  1.447597E+06  1.453590E+06  1.449923E+06  1.451233E+06  1.446226E+06  1.446336E+06  1.466738E+06  1.506197E+06  1.467539E+06
 1.532358E+06  1.532990E+06  1.469981E+06  1.454138E+06  1.446793E+06  1.448062E+06  1.446089E+06  1.456257E+06  1.452172E+06  1.455100E+06
 1.446627E+06  1.523288E+06  1.450135E+06  1.444850E+06  1.446589E+06  1.445260E+06  1.444451E+06  1.452230E+06  1.447295E+06  1.458730E+06
 1.443533E+06  1.462452E+06  1.492628E+06  1.446296E+06  1.452905E+06  1.473431E+06  1.455426E+06  1.447345E+06  1.454054E+06  1.505625E+06
 1.459012E+06  1.443148E+06  1.484176E+06  1.455085E+06  1.492061E+06  1.495606E+06  1.456874E+06  1.446980E+06  1.517131E+06  1.444911E+06
 1.508115E+06  1.442631E+06  1.460105E+06  1.479104E+06  1.475250E+06  1.464279E+06  1.448408E+06  1.442808E+06  1.483073E+06  1.466295E+06
 1.439739E+06  1.439516E+06  1.445414E+06  1.440356E+06  1.441485E+06  1.439706E+06  1.467572E+06  1.443416E+06  1.461721E+06  1.451846E+06
 1.437689E+06  1.442318E+06  1.496245E+06  1.472084E+06  1.458456E+06  1.437241E+06  1.437169E+06  1.439749E+06  1.436523E+06  1.440143E+06
 1.446406E+06  1.436128E+06  1.465762E+06  1.436014E+06  1.439421E+06  1.439891E+06  1.443063E+06  1.437604E+06  1.446718E+06  1.448701E+06
 1.435272E+06  1.443358E+06  1.450502E+06  1.436624E+06  1.480996E+06  1.515345E+06  1.441948E+06  1.492428E+06  1.452024E+06  1.445159E+06
 1.449001E+06  1.452343E+06  1.479826E+06  1.434291E+06  1.465963E+06  1.456498E+06  1.471344E+06  1.437634E+06  1.430601E+06  1.502225E+06
 1.453240E+06  1.433723E+06  1.469440E+06  1.456744E+06  1.431251E+06  1.429906E+06  1.493743E+06  1.479826E+06  1.461552E+06  1.431432E+06
 1.433651E+06  1.428071E+06  1.442328E+06  1.428134E+06  1.434220E+06  1.428987E+06  1.439705E+06  1.427755E+06  1.431758E+06  1.436884E+06
 1.500436E+06  1.455709E+06  1.448147E+06  1.429802E+06  1.508415E+06  1.479894E+06  1.425631E+06  1.426200E+06  1.443762E+06  1.433635E+06
 1.488387E+06  1.433693E+06  1.436131E+06  1.469816E+06  1.509948E+06  1.425428E+06  1.459212E+06  1.437336E+06  1.510554E+06  1.440597E+06
 1.444108E+06  1.424309E+06  1.446743E+06  1.458108E+06  1.478147E+06  1.465799E+06  1.419278E+06  1.424769E+06  1.425999E+06  1.425435E+06
 1.420189E+06  1.427044E+06  1.496874E+06  1.419857E+06  1.448565E+06  1.429785E+06  1.444127E+06  1.508089E+06  1.505342E+06  1.418063E+06
 1.421894E+06  1.426890E+06  1.431655E+06  1.459136E+06  1.416660E+06  1.424180E+06  1.415498E+06  1.417546E+06  1.433682E+06  1.436976E+06
 1.414386E+06  1.463547E+06  1.445831E+06  1.476610E+06  1.467730E+06  1.415969E+06  1.423940E+06  1.450676E+06  1.415777E+06  1.447055E+06
 1.477272E+06  1.425733E+06  1.420527E+06  1.493637E+06  1.491955E+06  1.431525E+06  1.435171E+06  1.428042E+06  1.411921E+06  1.412961E+06
 1.479444E+06  1.416187E+06  1.410192E+06  1.452339E+06  1.436979E+06  1.462128E+06  1.407369E+06  1.412818E+06  1.407731E+06  1.406265E+06
 1.418260E+06  1.446842E+06  1.419564E+06  1.405450E+06  1.494448E+06  1.421791E+06  1.409067E+06  1.406419E+06  1.411777E+06  1.429284E+06
 1.479077E+06  1.425348E+06  1.435304E+06  1.410193E+06  1.461670E+06  1.450484E+06  1.433733E+06  1.459600E+06  1.446837E+06  1.402971E+06
 1.410493E+06  1.413370E+06  1.403819E+06  1.401828E+06  1.476972E+06  1.436536E+06  1.418848E+06  1.399619E+06  1.398593E+06  1.487226E+06
 1.400046E+06  1.414983E+06  1.425036E+06  1.403322E+06  1.397136E+06  1.490105E+06  1.489272E+06  1.491585E+06  1.492705E+06  1.396488E+06
 1.463758E+06  1.405153E+06  1.446317E+06  1.461750E+06  1.437193E+06  1.421441E+06  1.432261E+06  1.394412E+06  1.400440E+06  1.404844E+06
 1.397655E+06  1.413471E+06  1.394741E+06  1.406424E+06  1.422331E+06  1.422166E+06  1.475662E+06  1.396494E+06  1.401373E+06  1.392886E+06
 1.389899E+06  1.410495E+06  1.441524E+06  1.390829E+06  1.389724E+06  1.388689E+06  1.446341E+06  1.449198E+06  1.387821E+06  1.475541E+06
 1.388788E+06  1.403156E+06  1.430177E+06  1.422482E+06  1.462599E+06  1.389821E+06  1.410688E+06  1.394292E+06  1.409279E+06  1.478131E+06
 1.383685E+06  1.419190E+06  1.389366E+06  1.382464E+06  1.432835E+06  1.425280E+06  1.463600E+06  1.454794E+06  1.390139E+06  1.380895E+06
 1.393787E+06  1.393997E+06  1.385169E+06  1.444507E+06  1.409950E+06  1.383453E+06  1.399149E+06  1.379540E+06  1.409192E+06  1.381629E+06
 1.396302E+06  1.379037E+06  1.381215E+06  1.379541E+06  1.384104E+06  1.446809E+06  1.399086E+06  1.427317E+06  1.436620E+06  1.376975E+06
 1.415457E+06  1.389560E+06  1.413946E+06  1.384850E+06  1.474176E+06  1.420545E+06  1.374613E+06  1.398288E+06  1.406376E+06  1.429189E+06
 1.372917E+06  1.380893E+06  1.384702E+06  1.378282E+06  1.458647E+06  1.376159E+06  1.405605E+06  1.399834E+06  1.393861E+06  1.374064E+06
 1.370865E+06  1.376249E+06  1.370434E+06  1.385028E+06  1.414747E+06  1.369837E+06  1.377029E+06  1.388772E+06  1.380435E+06  1.370880E+06
 1.368937E+06  1.474831E+06  1.434018E+06  1.450293E+06  1.385642E+06  1.377148E+06  1.370314E+06  1.396300E+06  1.366489E+06  1.370822E+06
 1.447226E+06  1.458685E+06  1.433219E+06  1.367727E+06  1.369488E+06  1.371955E+06  1.371037E+06  1.461891E+06  1.418112E+06  1.401741E+06
 1.407771E+06  1.365076E+06  1.387685E+06  1.378637E+06  1.401209E+06  1.476973E+06  1.474580E+06  1.380906E+06  1.463680E+06  1.411659E+06
 1.402972E+06  1.437740E+06  1.372913E+06  1.373744E+06  1.389048E+06  1.362112E+06  1.367799E+06  1.387425E+06  1.393599E+06  1.375437E+06
 1.420238E+06  1.365391E+06  1.363049E+06  1.435496E+06  1.362019E+06  1.368131E+06  1.412764E+06  1.360363E+06  1.360222E+06  1.391018E+06
 1.359092E+06  1.359207E+06  1.358977E+06  1.463827E+06  1.378925E+06  1.380196E+06  1.361801E+06  1.363624E+06  1.416522E+06  1.370757E+06
 1.366918E+06  1.405870E+06  1.359170E+06  1.373305E+06  1.368044E+06  1.399149E+06  1.357406E+06  1.356825E+06  1.363333E+06  1.384249E+06
 1.358237E+06  1.360050E+06  1.366124E+06  1.399388E+06  1.371110E+06  1.357643E+06  1.379970E+06  1.360488E+06  1.389898E+06  1.358468E+06
 1.421169E+06  1.355608E+06  1.407870E+06  1.376324E+06  1.425613E+06  1.392455E+06  1.472874E+06  1.356517E+06  1.373626E+06  1.367468E+06
 1.377750E+06  1.364780E+06  1.416444E+06  1.370216E+06  1.359139E+06  1.399609E+06  1.380503E+06  1.361512E+06  1.436144E+06  1.352743E+06
 1.353761E+06  1.386059E+06  1.370586E+06  1.365032E+06  1.352234E+06  1.446400E+06  1.445165E+06  1.382353E+06  1.389521E+06  1.356077E+06
 1.401986E+06  1.409547E+06  1.357143E+06  1.350337E+06  1.366593E+06  1.350482E+06  1.350602E+06  1.349281E+06  1.351150E+06  1.432786E+06
 1.348746E+06  1.349684E+06  1.354492E+06  1.358503E+06  1.356551E+06  1.378489E+06  1.390221E+06  1.363390E+06  1.360236E+06  1.348528E+06
 1.357806E+06  1.351713E+06  1.349043E+06  1.403005E+06  1.395159E+06  1.358287E+06  1.422098E+06  1.368693E+06  1.366713E+06  1.349648E+06
 1.351564E+06  1.386543E+06  1.380680E+06  1.370399E+06  1.351994E+06  1.346693E+06  1.375188E+06  1.389120E+06  1.347913E+06  1.348591E+06
 1.348790E+06  1.371154E+06  1.351987E+06  1.449694E+06  1.365892E+06  1.357120E+06  1.358880E+06  1.363504E+06  1.357918E+06  1.346497E+06
 1.397139E+06  1.359736E+06  1.374683E+06  1.369979E+06  1.409982E+06  1.423733E+06  1.379290E+06  1.343862E+06  1.388687E+06  1.347497E+06
 1.413854E+06  1.359065E+06  1.343984E+06  1.378767E+06  1.343223E+06  1.459438E+06  1.342458E+06  1.400493E+06  1.344421E+06  1.365397E+06
 1.342658E+06  1.349013E+06  1.351270E+06  1.358918E+06  1.349981E+06  1.347206E+06  1.343590E+06  1.341161E+06  1.341079E+06  1.380840E+06
 1.399683E+06  1.403946E+06  1.372407E+06  1.350822E+06  1.345349E+06  1.340690E+06  1.388852E+06  1.378743E+06  1.346097E+06  1.366758E+06
 1.359728E+06  1.342691E+06  1.340625E+06  1.447743E+06  1.361682E+06  1.339418E+06  1.350845E+06  1.343177E+06  1.353239E+06  1.368086E+06
 1.339040E+06  1.339909E+06  1.347532E+06  1.366921E+06  1.338592E+06  1.340208E+06  1.345815E+06  1.350059E+06  1.348422E+06  1.379175E+06
 1.369704E+06  1.361506E+06  1.428064E+06  1.358670E+06  1.355689E+06  1.362516E+06  1.342750E+06  1.385890E+06  1.355158E+06  1.458261E+06
 1.338591E+06  1.341250E+06  1.379867E+06  1.337719E+06  1.338154E+06  1.340137E+06  1.338651E+06  1.336423E+06  1.349248E+06  1.342005E+06
 1.338623E+06  1.337075E+06  1.350687E+06  1.379737E+06  1.338453E+06  1.387106E+06  1.344749E+06  1.348318E+06  1.355167E+06  1.356710E+06
 1.342025E+06  1.337479E+06  1.419314E+06  1.409603E+06  1.388712E+06  1.371163E+06  1.338333E+06  1.434866E+06  1.350430E+06  1.336230E+06
 1.334100E+06  1.395741E+06  1.336775E+06  1.367076E+06  1.337049E+06  1.344216E+06  1.370169E+06  1.359212E+06  1.334118E+06  1.338486E+06
 1.427715E+06  1.333817E+06  1.366877E+06  1.338048E+06  1.449218E+06  1.348365E+06  1.339224E+06  1.360067E+06  1.340785E+06  1.349439E+06
 1.339571E+06  1.353091E+06  1.334639E+06  1.351412E+06  1.387856E+06  1.356456E+06  1.335235E+06  1.338138E+06  1.340863E+06  1.410017E+06
 1.398222E+06  1.349247E+06  1.361674E+06  1.370593E+06  1.357093E+06  1.400536E+06  1.341298E+06  1.369511E+06  1.352600E+06  1.342373E+06
 1.331246E+06  1.348670E+06  1.331076E+06  1.331219E+06  1.358579E+06  1.389588E+06  1.344159E+06  1.330449E+06  1.360189E+06  1.334413E+06
 1.354346E+06  1.353046E+06  1.352688E+06  1.330425E+06  1.334284E+06  1.331057E+06  1.331313E+06  1.330717E+06  1.331234E+06  1.371295E+06
 1.374732E+06  1.361411E+06  1.356755E+06  1.331457E+06  1.340861E+06  1.347757E+06  1.339112E+06  1.342865E+06  1.369669E+06  1.330899E+06
 1.432187E+06  1.336753E+06  1.331275E+06  1.329298E+06  1.359199E+06  1.328802E+06  1.328526E+06  1.330352E+06  1.337101E+06  1.330485E+06
 1.333676E+06  1.340590E+06  1.378673E+06  1.342948E+06  1.344373E+06  1.334008E+06  1.330690E+06  1.332701E+06  1.331675E+06  1.361108E+06
 1.333113E+06  1.330585E+06  1.447709E+06  1.362565E+06  1.339439E+06  1.328243E+06  1.333836E+06  1.337565E+06  1.371358E+06  1.347182E+06
 1.329094E+06  1.326794E+06  1.327909E+06  1.331511E+06  1.330528E+06  1.337538E+06  1.334227E+06  1.373381E+06  1.326654E+06  1.326917E+06
 1.351861E+06  1.339347E+06  1.377550E+06  1.414519E+06  1.345367E+06  1.347920E+06  1.329258E+06  1.342067E+06  1.352835E+06  1.385937E+06