# vtk DataFile Version 2.0
PFLOTRAN output
ASCII
DATASET UNSTRUCTURED_GRID
CELL_DATA   14538
SCALARS Liquid_Pressure      float 1
LOOKUP_TABLE default
 2.000000E+06  2.000000E+06  2.000000E+06  2.000000E+06  2.000000E+06  2.000000E+06  2.000000E+06  2.000000E+06  2.000000E+06  2.000000E+06
 2.000000E+06  2.000000E+06  2.000000E+06  2.000000E+06  2.000000E+06  2.000000E+06  2.000000E+06  2.000000E+06  1.934723E+06  1.917494E+06
 1.911854E+06  1.911526E+06  1.908623E+06  1.916243E+06  1.907085E+06  1.900472E+06  1.902289E+06  1.900912E+06  1.899926E+06  1.893673E+06
 1.887437E+06  1.887367E+06  1.871934E+06  1.855674E+06  1.860115E+06  1.838072E+06  1.838316E+06  1.819546E+06  1.813988E+06  1.823031E+06
 1.811151E+06  1.810512E+06  1.793638E+06  1.796568E+06  1.809347E+06  1.800996E+06  1.817237E+06  1.789501E+06  1.781964E+06  1.790544E+06
 1.784155E+06  1.772757E+06  1.755849E+06  1.755647E+06  1.750741E+06  1.743307E+06  1.742272E+06  1.738668E+06  1.734445E+06  1.717846E+06
 1.719415E+06  1.724148E+06  1.719875E+06  1.707541E+06  1.709922E+06  1.687846E+06  1.692288E+06  1.690426E+06  1.690224E+06  1.688247E+06
 1.679223E+06  1.677814E+06  1.659462E+06  1.652330E+06  1.662201E+06  1.661150E+06  1.652996E+06  1.641987E+06  1.643191E+06  1.633392E+06
 1.637783E+06  1.629417E+06  1.634618E+06  1.631981E+06  1.630406E+06  1.617077E+06  1.606581E+06  1.611054E+06  1.608006E+06  1.599105E+06
 1.599893E+06  1.596643E+06  1.591682E+06  1.595514E+06  1.579885E+06  1.582954E+06  1.578436E+06  1.586464E+06  1.573730E+06  1.579894E+06
 1.572874E+06  1.576632E+06  1.571822E+06  1.560212E+06  1.565311E+06  1.545174E+06  1.542994E+06  1.544060E+06  1.547405E+06  1.543305E+06
 1.540635E+06  1.533101E+06  1.530213E+06  1.534467E+06  1.524604E+06  1.526379E+06  1.523437E+06  1.524312E+06  1.516161E+06  1.518955E+06
 1.505117E+06  1.507533E+06  1.504546E+06  1.504324E+06  1.506560E+06  1.502629E+06  1.512583E+06  1.514842E+06  1.493486E+06  1.484150E+06
 1.485952E+06  1.497170E+06  1.479618E+06  1.480850E+06  1.473798E+06  1.485324E+06  1.482413E+06  1.488581E+06  1.469080E+06  1.469901E+06
 1.475962E+06  1.472325E+06  1.467112E+06  1.461556E+06  1.457266E+06  1.450138E+06  1.452928E+06  1.450610E+06  1.466266E+06  1.466407E+06
 1.466798E+06  1.466498E+06  1.452514E+06  1.444951E+06  1.447146E+06  1.445210E+06  1.436140E+06  1.439451E+06  1.445989E+06  1.429617E+06
 1.427855E+06  1.442494E+06  1.427590E+06  1.437783E+06  1.424456E+06  1.418483E+06  1.424045E+06  1.414576E+06  1.426792E+06  1.424461E+06
 1.434317E+06  1.431396E+06  1.414668E+06  1.419550E+06  1.406971E+06  1.403620E+06  1.422838E+06  1.400541E+06  1.422261E+06  1.397363E+06
 1.408530E+06  1.400515E+06  1.393576E+06  1.395336E+06  1.396273E+06  1.391892E+06  1.388223E+06  1.395738E+06  1.385346E+06  1.385869E+06
 1.388091E+06  1.395355E+06  1.403531E+06  1.405450E+06  1.401663E+06  1.379744E+06  1.393854E+06  1.385892E+06  1.385254E+06  1.395935E+06
 1.375949E+06  1.369274E+06  1.371649E+06  1.366995E+06  1.393817E+06  1.394961E+06  1.384700E+06  1.368001E+06  1.365126E+06  1.361571E+06
 1.375127E+06  1.363556E+06  1.360004E+06  1.366923E+06  1.360431E+06  1.379188E+06  1.361957E+06  1.370384E+06  1.361297E+06  1.348398E+06
 1.350934E+06  1.358597E+06  1.343515E+06  1.345685E+06  1.364889E+06  1.342546E+06  1.353402E+06  1.375759E+06  1.343028E+06  1.361395E+06
 1.347500E+06  1.340568E+06  1.374968E+06  1.340281E+06  1.372693E+06  1.373657E+06  1.350307E+06  1.342853E+06  1.352372E+06  1.363484E+06
 1.338860E+06  1.370306E+06  1.370836E+06  1.342809E+06  1.328141E+06  1.329417E+06  1.336857E+06  1.329002E+06  1.332252E+06  1.357775E+06
 1.330803E+06  1.358697E+06  1.342479E+06  1.348868E+06  1.322826E+06  1.346091E+06  1.325747E+06  1.324941E+06  1.324005E+06  1.326735E+06
 1.317583E+06  1.353314E+06  1.317844E+06  1.332996E+06  1.330841E+06  1.318076E+06  1.319318E+06  1.326406E+06  1.317727E+06  1.342911E+06
 1.312344E+06  1.310909E+06  1.333849E+06  1.311063E+06  1.310218E+06  1.311324E+06  1.321869E+06  1.306640E+06  1.306335E+06  1.316323E+06
 1.324437E+06  1.305690E+06  1.315617E+06  1.311409E+06  1.334319E+06  1.308174E+06  1.305558E+06  1.322510E+06  1.297585E+06  1.299701E+06
 1.301989E+06  1.302924E+06  1.309210E+06  1.326499E+06  1.333461E+06  1.338608E+06  1.297672E+06  1.299195E+06  1.296970E+06  1.315886E+06
 1.304822E+06  1.296970E+06  1.295256E+06  1.292805E+06  1.295285E+06  1.318732E+06  1.307711E+06  1.292622E+06  1.329352E+06  1.296161E+06
 1.308726E+06  1.295642E+06  1.288255E+06  1.310039E+06  1.286653E+06  1.284333E+06  1.327534E+06  1.308149E+06  1.291653E+06  1.291767E+06
 1.302569E+06  1.288025E+06  1.297701E+06  1.284740E+06  1.329849E+06  1.293450E+06  1.295735E+06  1.282284E+06  1.279889E+06  1.280058E+06
 1.280739E+06  1.281671E+06  1.284043E+06  1.288859E+06  1.277905E+06  1.298467E+06  1.307409E+06  1.282442E+06  1.323784E+06  1.292884E+06
 1.316767E+06  1.280226E+06  1.277698E+06  1.275552E+06  1.318314E+06  1.272806E+06  1.285269E+06  1.272834E+06  1.271774E+06  1.309447E+06
 1.276785E+06  1.272042E+06  1.269257E+06  1.275029E+06  1.286465E+06  1.318986E+06  1.319803E+06  1.293575E+06  1.273017E+06  1.293973E+06
 1.267011E+06  1.307258E+06  1.272035E+06  1.269562E+06  1.273710E+06  1.269065E+06  1.275438E+06  1.267939E+06  1.278134E+06  1.285602E+06
 1.271144E+06  1.294466E+06  1.264420E+06  1.274407E+06  1.270275E+06  1.296687E+06  1.280293E+06  1.267355E+06  1.262307E+06  1.261371E+06
 1.259194E+06  1.297283E+06  1.290688E+06  1.269328E+06  1.259479E+06  1.269921E+06  1.265861E+06  1.263348E+06  1.264434E+06  1.258627E+06
 1.258922E+06  1.260277E+06  1.263354E+06  1.301934E+06  1.260388E+06  1.270712E+06  1.258344E+06  1.272129E+06  1.285419E+06  1.257092E+06
 1.274354E+06  1.258094E+06  1.256221E+06  1.257299E+06  1.254963E+06  1.258836E+06  1.259320E+06  1.258067E+06  1.288096E+06  1.276832E+06
 1.273231E+06  1.272987E+06  1.251818E+06  1.262551E+06  1.249928E+06  1.260075E+06  1.251106E+06  1.254955E+06  1.250006E+06  1.250404E+06
 1.265639E+06  1.248819E+06  1.274998E+06  1.256838E+06  1.255574E+06  1.252205E+06  1.250064E+06  1.278749E+06  1.247476E+06  1.261997E+06
 1.259569E+06  1.256028E+06  1.248900E+06  1.249653E+06  1.245553E+06  1.255759E+06  1.249085E+06  1.245788E+06  1.244679E+06  1.250787E+06
 1.272163E+06  1.250309E+06  1.249160E+06  1.250165E+06  1.248425E+06  1.250279E+06  1.261005E+06  1.252601E+06  1.266730E+06  1.241287E+06
 1.241181E+06  1.283664E+06  1.240201E+06  1.243566E+06  1.242959E+06  1.242270E+06  1.285547E+06  1.256852E+06  1.240258E+06  1.239654E+06
 1.239727E+06  1.275575E+06  1.262788E+06  1.238681E+06  1.275531E+06  1.244488E+06  1.254094E+06  1.246340E+06  1.242891E+06  1.239380E+06
 1.253598E+06  1.239234E+06  1.239223E+06  1.238219E+06  1.255736E+06  1.249703E+06  1.245676E+06  1.256991E+06  1.243017E+06  1.234724E+06
 1.240121E+06  1.236249E+06  1.241043E+06  1.284771E+06  1.248052E+06  1.237941E+06  1.235988E+06  1.236474E+06  1.280372E+06  1.237699E+06
 1.238533E+06  1.264960E+06  1.236324E+06  1.260258E+06  1.239609E+06  1.288283E+06  1.238651E+06  1.241886E+06  1.236908E+06  1.232954E+06
 1.243971E+06  1.265011E+06  1.249100E+06  1.235523E+06  1.246687E+06  1.236383E+06  1.267180E+06  1.290987E+06  1.291219E+06  1.230235E+06
 1.289241E+06  1.231161E+06  1.241381E+06  1.240433E+06  1.251512E+06  1.229701E+06  1.229059E+06  1.229507E+06  1.236278E+06  1.228560E+06
 1.228622E+06  1.284034E+06  1.289758E+06  1.237561E+06  1.230392E+06  1.236021E+06  1.228363E+06  1.227980E+06  1.235689E+06  1.270809E+06
 1.234154E+06  1.226692E+06  1.243525E+06  1.227187E+06  1.233591E+06  1.235937E+06  1.231502E+06  1.232142E+06  1.231583E+06  1.225790E+06
 1.228227E+06  1.289087E+06  1.289135E+06  1.255799E+06  1.254521E+06  1.238274E+06  1.249856E+06  1.227802E+06  1.230854E+06  1.228082E+06
 1.226055E+06  1.249404E+06  1.243279E+06  1.238887E+06  1.242546E+06  1.234740E+06  1.229375E+06  1.228101E+06  1.228506E+06  1.231316E+06
 1.225465E+06  1.224177E+06  1.244820E+06  1.229957E+06  1.225041E+06  1.228882E+06  1.225774E+06  1.224999E+06  1.225919E+06  1.236118E+06
 1.223794E+06  1.231044E+06  1.221508E+06  1.222945E+06  1.227153E+06  1.262041E+06  1.231799E+06  1.228186E+06  1.220709E+06  1.231785E+06
 1.222195E+06  1.220681E+06  1.231669E+06  1.223498E+06  1.219964E+06  1.219811E+06  1.233109E+06  1.225023E+06  1.273013E+06  1.218461E+06
 1.222267E+06  1.254812E+06  1.263630E+06  1.218877E+06  1.224318E+06  1.220312E+06  1.249731E+06  1.278535E+06  1.217383E+06  1.221717E+06
 1.216946E+06  1.216885E+06  1.222076E+06  1.216688E+06  1.256524E+06  1.266984E+06  1.222079E+06  1.232009E+06  1.220132E+06  1.226049E+06
 1.219634E+06  1.215961E+06  1.224802E+06  1.215690E+06  1.218666E+06  1.216855E+06  1.216019E+06  1.250356E+06  1.227879E+06  1.223308E+06
 1.225096E+06  1.242803E+06  1.217796E+06  1.242484E+06  1.238378E+06  1.220644E+06  1.234973E+06  1.229746E+06  1.218621E+06  1.222451E+06
 1.214485E+06  1.232776E+06  1.221547E+06  1.218045E+06  1.215900E+06  1.217200E+06  1.219302E+06  1.213520E+06  1.215416E+06  1.214220E+06
 1.218046E+06  1.219886E+06  1.213774E+06  1.213063E+06  1.214013E+06  1.215037E+06  1.214986E+06  1.223117E+06  1.214625E+06  1.234779E+06
 1.218312E+06  1.219082E+06  1.211604E+06  1.220774E+06  1.211943E+06  1.211995E+06  1.224054E+06  1.236646E+06  1.217408E+06  1.214529E+06
 1.227599E+06  1.212908E+06  1.241668E+06  1.209922E+06  1.211415E+06  1.223297E+06  1.220544E+06  1.240857E+06  1.230397E+06  1.221491E+06
 1.210601E+06  1.266618E+06  1.227100E+06  1.220256E+06  1.212923E+06  1.215267E+06  1.213005E+06  1.212189E+06  1.213569E+06  1.218039E+06
 1.222246E+06  1.209295E+06  1.213487E+06  1.211294E+06  1.209618E+06  1.216518E+06  1.212070E+06  1.214471E+06  1.207014E+06  1.211169E+06
 1.207245E+06  1.206886E+06  1.244616E+06  1.209212E+06  1.208313E+06  1.212024E+06  1.214072E+06  1.249509E+06  1.217617E+06  1.210352E+06
 1.206748E+06  1.206607E+06  1.208191E+06  1.211395E+06  1.216839E+06  1.209055E+06  1.207661E+06  1.207967E+06  1.253295E+06  1.210912E+06
 1.203895E+06  1.207545E+06  1.231692E+06  1.202050E+06  1.215517E+06  1.211479E+06  1.238072E+06  1.202562E+06  1.205171E+06  1.203471E+06
 1.219370E+06  1.202486E+06  1.202822E+06  1.207555E+06  1.214327E+06  1.220396E+06  1.201853E+06  1.216668E+06  1.212589E+06  1.238325E+06
 1.201539E+06  1.201625E+06  1.206126E+06  1.202936E+06  1.201189E+06  1.203364E+06  1.249269E+06  1.225472E+06  1.201441E+06  1.201883E+06
 1.202720E+06  1.212659E+06  1.204010E+06  1.219609E+06  1.200611E+06  1.222215E+06  1.210205E+06  1.214418E+06  1.200732E+06  1.224871E+06
 1.203427E+06  1.201399E+06  1.207746E+06  1.209175E+06  1.215588E+06  1.208203E+06  1.201542E+06  1.201184E+06  1.203238E+06  1.208240E+06
 1.204686E+06  1.205651E+06  1.209625E+06  1.254513E+06  1.205620E+06  1.215082E+06  1.204656E+06  1.206295E+06  1.199283E+06  1.241103E+06
 1.205824E+06  1.203346E+06  1.206253E+06  1.225565E+06  1.198694E+06  1.201012E+06  1.204975E+06  1.199311E+06  1.198199E+06  1.202922E+06
 1.219836E+06  1.200851E+06  1.203563E+06  1.198210E+06  1.198209E+06  1.208662E+06  1.203195E+06  1.201808E+06  1.229744E+06  1.199182E+06
 1.201191E+06  1.213556E+06  1.197207E+06  1.199421E+06  1.210764E+06  1.199533E+06  1.199752E+06  1.216026E+06  1.200140E+06  1.228309E+06
 1.196298E+06  1.196498E+06  1.196658E+06  1.196106E+06  1.195887E+06  1.196355E+06  1.208685E+06  1.206459E+06  1.207550E+06  1.199188E+06
 1.260543E+06  1.201364E+06  1.203803E+06  1.203149E+06  1.206539E+06  1.207377E+06  1.200704E+06  1.195678E+06  1.202076E+06  1.204681E+06
 1.196228E+06  1.196378E+06  1.194583E+06  1.199295E+06  1.203095E+06  1.196080E+06  1.195285E+06  1.193855E+06  1.198367E+06  1.196401E+06
 1.236995E+06  1.195511E+06  1.248951E+06  1.200509E+06  1.209647E+06  1.195227E+06  1.203775E+06  1.220781E+06  1.193159E+06  1.213915E+06
 1.198751E+06  1.194349E+06  1.193147E+06  1.196321E+06  1.198956E+06  1.216365E+06  1.200962E+06  1.196997E+06  1.209795E+06  1.202224E+06
 1.211239E+06  1.197465E+06  1.200071E+06  1.199482E+06  1.201855E+06  1.194286E+06  1.192822E+06  1.195936E+06  1.196028E+06  1.221636E+06
 1.241107E+06  1.193290E+06  1.200280E+06  1.194115E+06  1.192503E+06  1.192375E+06  1.198397E+06  1.193006E+06  1.206177E+06  1.208872E+06
 1.192143E+06  1.192375E+06  1.192868E+06  1.197479E+06  1.214857E+06  1.191542E+06  1.252337E+06  1.191632E+06  1.194143E+06  1.192283E+06
 1.205595E+06  1.191158E+06  1.192754E+06  1.190927E+06  1.192695E+06  1.228658E+06  1.191392E+06  1.193246E+06  1.190716E+06  1.192831E+06
 1.200832E+06  1.190777E+06  1.202639E+06  1.190752E+06  1.191951E+06  1.193641E+06  1.194332E+06  1.193924E+06  1.195413E+06  1.192447E+06
 1.191825E+06  1.190402E+06  1.196960E+06  1.189935E+06  1.193863E+06  1.189969E+06  1.207590E+06  1.189799E+06  1.192000E+06  1.191195E+06
 1.201831E+06  1.191061E+06  1.259738E+06  1.209267E+06  1.204289E+06  1.190203E+06  1.200087E+06  1.196238E+06  1.199490E+06  1.201958E+06
 1.193639E+06  1.215051E+06  1.189114E+06  1.199607E+06  1.196171E+06  1.188622E+06  1.188437E+06  1.204049E+06  1.189431E+06  1.188036E+06
 1.187988E+06  1.236699E+06  1.196938E+06  1.198107E+06  1.192200E+06  1.193745E+06  1.195558E+06  1.192995E+06  1.189473E+06  1.196099E+06
 1.193011E+06  1.187248E+06  1.226722E+06  1.205806E+06  1.200175E+06  1.219370E+06  1.191255E+06  1.189287E+06  1.190724E+06  1.192292E+06
 1.194205E+06  1.190129E+06  1.195462E+06  1.190676E+06  1.255427E+06  1.188644E+06  1.187384E+06  1.193372E+06  1.186703E+06  1.195790E+06
 1.211380E+06  1.259818E+06  1.217763E+06  1.250882E+06  1.227427E+06  1.246626E+06  1.236569E+06  1.231970E+06  1.208878E+06  1.237374E+06
 1.258107E+06  1.181827E+06  1.220255E+06  1.212597E+06  1.182077E+06  1.181774E+06  1.183563E+06  1.188921E+06  1.181960E+06  1.191489E+06
 1.180913E+06  1.183928E+06  1.180800E+06  1.184077E+06  1.196916E+06  1.181297E+06  1.187178E+06  1.182051E+06  1.181833E+06  1.183978E+06
 1.181780E+06  1.224225E+06  1.187473E+06  1.187930E+06  1.191453E+06  1.194865E+06  1.182111E+06  1.184843E+06  1.195398E+06  1.181216E+06
 1.206826E+06  1.200211E+06  1.183963E+06  1.184584E+06  1.180275E+06  1.183730E+06  1.193511E+06  1.188904E+06  1.185102E+06  1.204807E+06
 1.198003E+06  1.202030E+06  1.192492E+06  1.180491E+06  1.180475E+06  1.179917E+06  1.190364E+06  1.183717E+06  1.180259E+06  1.181109E+06
 1.180531E+06  1.184445E+06  1.179754E+06  1.186198E+06  1.180273E+06  1.199065E+06  1.185434E+06  1.181647E+06  1.181919E+06  1.253753E+06
 1.182443E+06  1.184614E+06  1.179456E+06  1.184568E+06  1.191094E+06  1.202627E+06  1.181137E+06  1.187237E+06  1.183335E+06  1.187537E+06
 1.194943E+06  1.180301E+06  1.180421E+06  1.188951E+06  1.179163E+06  1.179688E+06  1.179871E+06  1.180274E+06  1.179171E+06  1.197622E+06
 1.181109E+06  1.185156E+06  1.182050E+06  1.181404E+06  1.191459E+06  1.249981E+06  1.178706E+06  1.179297E+06  1.186852E+06  1.187899E+06
 1.195895E+06  1.179076E+06  1.182854E+06  1.193293E+06  1.178597E+06  1.180091E+06  1.225870E+06  1.178478E+06  1.181963E+06  1.178659E+06
 1.213970E+06  1.209332E+06  1.178757E+06  1.181784E+06  1.181934E+06  1.190352E+06  1.181221E+06  1.192901E+06  1.194919E+06  1.185866E+06
 1.179241E+06  1.183270E+06  1.184179E+06  1.189012E+06  1.178563E+06  1.183644E+06  1.182718E+06  1.178980E+06  1.185729E+06  1.178814E+06
 1.178259E+06  1.177803E+06  1.177863E+06  1.191479E+06  1.207699E+06  1.252018E+06  1.253258E+06  1.184502E+06  1.180785E+06  1.179073E+06
 1.179781E+06  1.184860E+06  1.178869E+06  1.186439E+06  1.178270E+06  1.181392E+06  1.187801E+06  1.199413E+06  1.181214E+06  1.178553E+06
 1.177587E+06  1.199213E+06  1.204567E+06  1.178427E+06  1.184031E+06  1.179102E+06  1.185472E+06  1.184747E+06  1.183254E+06  1.232445E+06
 1.177623E+06  1.181738E+06  1.220691E+06  1.203884E+06  1.178333E+06  1.190868E+06  1.178516E+06  1.182254E+06  1.188533E+06  1.225472E+06
 1.188628E+06  1.180939E+06  1.186588E+06  1.195316E+06  1.183826E+06  1.177566E+06  1.177371E+06  1.186706E+06  1.176645E+06  1.200857E+06
 1.212653E+06  1.179638E+06  1.185668E+06  1.235604E+06  1.178348E+06  1.176911E+06  1.177732E+06  1.181789E+06  1.176448E+06  1.176340E+06
 1.178830E+06  1.176662E+06  1.197223E+06  1.187049E+06  1.192488E+06  1.176151E+06  1.189319E+06  1.200146E+06  1.176152E+06  1.178116E+06
 1.176015E+06  1.176266E+06  1.179338E+06  1.177054E+06  1.179473E+06  1.192113E+06  1.183168E+06  1.175602E+06  1.178821E+06  1.184972E+06
 1.183989E+06  1.177688E+06  1.193195E+06  1.184113E+06  1.175354E+06  1.176529E+06  1.179537E+06  1.178503E+06  1.180312E+06  1.232600E+06
 1.194923E+06  1.177668E+06  1.175094E+06  1.178878E+06  1.175081E+06  1.181877E+06  1.195511E+06  1.177841E+06  1.175809E+06  1.175504E+06
 1.180901E+06  1.176512E+06  1.174903E+06  1.190218E+06  1.175156E+06  1.175564E+06  1.179931E+06  1.175756E+06  1.176543E+06  1.174653E+06
 1.174776E+06  1.182845E+06  1.177425E+06  1.179094E+06  1.212276E+06  1.174141E+06  1.217498E+06  1.235784E+06  1.177872E+06  1.203106E+06
 1.188650E+06  1.222281E+06  1.173990E+06  1.173476E+06  1.173733E+06  1.173851E+06  1.205598E+06  1.180046E+06  1.176353E+06  1.185626E+06
 1.195922E+06  1.173553E+06  1.181045E+06  1.178111E+06  1.179835E+06  1.199054E+06  1.176769E+06  1.221126E+06  1.216109E+06  1.237962E+06
 1.191131E+06  1.205532E+06  1.182863E+06  1.186211E+06  1.177572E+06  1.186013E+06  1.173971E+06  1.176758E+06  1.178584E+06  1.172113E+06
 1.171981E+06  1.174920E+06  1.173906E+06  1.183702E+06  1.188653E+06  1.173283E+06  1.171788E+06  1.184059E+06  1.175451E+06  1.197923E+06
 1.171391E+06  1.180811E+06  1.171144E+06  1.172654E+06  1.171135E+06  1.177287E+06  1.170937E+06  1.175979E+06  1.230599E+06  1.172243E+06
 1.170803E+06  1.181704E+06  1.172088E+06  1.171429E+06  1.209214E+06  1.174931E+06  1.187840E+06  1.186368E+06  1.173028E+06  1.170503E+06
 1.177264E+06  1.171263E+06  1.170761E+06  1.171336E+06  1.172940E+06  1.178385E+06  1.172444E+06  1.180571E+06  1.181758E+06  1.169936E+06
 1.174224E+06  1.200014E+06  1.170855E+06  1.193634E+06  1.170185E+06  1.172118E+06  1.169672E+06  1.175581E+06  1.189399E+06  1.168753E+06
 1.191715E+06  1.173934E+06  1.187536E+06  1.211863E+06  1.172641E+06  1.171938E+06  1.172544E+06  1.177967E+06  1.206494E+06  1.174208E+06
 1.178458E+06  1.218609E+06  1.189949E+06  1.193974E+06  1.170178E+06  1.235596E+06  1.201265E+06  1.175335E+06  1.167744E+06  1.169015E+06
 1.196791E+06  1.167931E+06  1.169048E+06  1.175844E+06  1.223737E+06  1.169353E+06  1.182860E+06  1.168043E+06  1.167243E+06  1.166893E+06
 1.170253E+06  1.167466E+06  1.167191E+06  1.183093E+06  1.171782E+06  1.171123E+06  1.166767E+06  1.173034E+06  1.185617E+06  1.166190E+06
 1.172022E+06  1.166571E+06  1.166265E+06  1.183780E+06  1.167614E+06  1.226874E+06  1.173930E+06  1.168390E+06  1.180299E+06  1.200707E+06
 1.176469E+06  1.172689E+06  1.167333E+06  1.178227E+06  1.166541E+06  1.165882E+06  1.166207E+06  1.167416E+06  1.165353E+06  1.170310E+06
 1.179465E+06  1.168085E+06  1.209798E+06  1.165315E+06  1.176857E+06  1.172296E+06  1.167421E+06  1.211439E+06  1.170276E+06  1.233508E+06
 1.164661E+06  1.173597E+06  1.177947E+06  1.189192E+06  1.170973E+06  1.191710E+06  1.165463E+06  1.204773E+06  1.215141E+06  1.168788E+06
 1.167999E+06  1.166708E+06  1.164720E+06  1.167000E+06  1.185567E+06  1.202671E+06  1.175175E+06  1.182760E+06  1.193335E+06  1.172765E+06
 1.163824E+06  1.172765E+06  1.183862E+06  1.164504E+06  1.171033E+06  1.162263E+06  1.162517E+06  1.228853E+06  1.196936E+06  1.189070E+06
 1.220809E+06  1.186258E+06  1.162133E+06  1.177860E+06  1.166319E+06  1.192020E+06  1.230556E+06  1.230300E+06  1.165463E+06  1.161262E+06
 1.161069E+06  1.161949E+06  1.166360E+06  1.163521E+06  1.164527E+06  1.160837E+06  1.160890E+06  1.177017E+06  1.211115E+06  1.178455E+06
 1.228526E+06  1.228851E+06  1.179736E+06  1.166810E+06  1.161209E+06  1.162379E+06  1.160697E+06  1.169053E+06  1.165732E+06  1.167575E+06
 1.161252E+06  1.221965E+06  1.163733E+06  1.159886E+06  1.161252E+06  1.160085E+06  1.159566E+06  1.165859E+06  1.161869E+06  1.171146E+06
 1.158852E+06  1.174265E+06  1.199903E+06  1.160836E+06  1.166461E+06  1.183630E+06  1.168494E+06  1.161631E+06  1.166833E+06  1.210094E+06
 1.171485E+06  1.158674E+06  1.191578E+06  1.167697E+06  1.197918E+06  1.202141E+06  1.169159E+06  1.161824E+06  1.218586E+06  1.160180E+06
 1.210082E+06  1.158165E+06  1.171780E+06  1.188525E+06  1.184240E+06  1.175973E+06  1.162530E+06  1.158291E+06  1.191835E+06  1.177736E+06
 1.156082E+06  1.155945E+06  1.160280E+06  1.156669E+06  1.157543E+06  1.156052E+06  1.177945E+06  1.158783E+06  1.173212E+06  1.165867E+06
 1.154654E+06  1.158356E+06  1.200742E+06  1.182705E+06  1.171312E+06  1.154390E+06  1.154238E+06  1.156336E+06  1.153787E+06  1.156374E+06
 1.161115E+06  1.153568E+06  1.177484E+06  1.153431E+06  1.156158E+06  1.156211E+06  1.159047E+06  1.154719E+06  1.161960E+06  1.162925E+06
 1.153014E+06  1.159382E+06  1.164984E+06  1.153845E+06  1.190004E+06  1.215897E+06  1.157812E+06  1.198981E+06  1.166287E+06  1.160276E+06
 1.163239E+06  1.165863E+06  1.187768E+06  1.152191E+06  1.176754E+06  1.169989E+06  1.181026E+06  1.154655E+06  1.149617E+06  1.205810E+06
 1.166709E+06  1.152156E+06  1.180657E+06  1.170386E+06  1.150262E+06  1.149249E+06  1.199349E+06  1.188805E+06  1.174310E+06  1.150181E+06
 1.151792E+06  1.147877E+06  1.158875E+06  1.147955E+06  1.152630E+06  1.148470E+06  1.156322E+06  1.147615E+06  1.150426E+06  1.154237E+06
 1.202463E+06  1.168759E+06  1.163539E+06  1.149309E+06  1.207873E+06  1.187415E+06  1.146153E+06  1.146644E+06  1.159492E+06  1.151870E+06
 1.193585E+06  1.152400E+06  1.154285E+06  1.180895E+06  1.210062E+06  1.146177E+06  1.171541E+06  1.154753E+06  1.208588E+06  1.157809E+06
 1.159896E+06  1.145247E+06  1.162723E+06  1.171720E+06  1.187073E+06  1.176524E+06  1.141808E+06  1.145863E+06  1.146451E+06  1.146425E+06
 1.142474E+06  1.147232E+06  1.200376E+06  1.142196E+06  1.164334E+06  1.149344E+06  1.160079E+06  1.205769E+06  1.205452E+06  1.141067E+06
 1.143617E+06  1.147226E+06  1.151270E+06  1.172568E+06  1.140027E+06  1.145709E+06  1.139275E+06  1.140768E+06  1.152324E+06  1.155440E+06
 1.138501E+06  1.175837E+06  1.161455E+06  1.185419E+06  1.177529E+06  1.139788E+06  1.145725E+06  1.165072E+06  1.139471E+06  1.163398E+06
 1.184122E+06  1.146661E+06  1.142835E+06  1.196604E+06  1.194149E+06  1.150985E+06  1.154397E+06  1.148956E+06  1.136881E+06  1.137889E+06
 1.186874E+06  1.139827E+06  1.135816E+06  1.166210E+06  1.155907E+06  1.174479E+06  1.133907E+06  1.137928E+06  1.134092E+06  1.133142E+06
 1.141444E+06  1.163278E+06  1.142939E+06  1.132591E+06  1.194989E+06  1.144122E+06  1.135058E+06  1.133390E+06  1.137385E+06  1.149562E+06
 1.184410E+06  1.147345E+06  1.153917E+06  1.135953E+06  1.173674E+06  1.164607E+06  1.153715E+06  1.170863E+06  1.163186E+06  1.131043E+06
 1.136707E+06  1.138329E+06  1.131916E+06  1.130493E+06  1.183824E+06  1.154803E+06  1.142283E+06  1.128906E+06  1.128193E+06  1.190524E+06
 1.129118E+06  1.140069E+06  1.147409E+06  1.131375E+06  1.127226E+06  1.192158E+06  1.191642E+06  1.191616E+06  1.192261E+06  1.126808E+06
 1.173155E+06  1.132776E+06  1.162577E+06  1.173037E+06  1.155176E+06  1.144245E+06  1.152731E+06  1.125637E+06  1.130012E+06  1.133153E+06
 1.128052E+06  1.139309E+06  1.125808E+06  1.133920E+06  1.145718E+06  1.144816E+06  1.180446E+06  1.127099E+06  1.130462E+06  1.124859E+06
 1.122686E+06  1.136784E+06  1.157913E+06  1.123278E+06  1.122541E+06  1.121891E+06  1.162215E+06  1.162844E+06  1.121331E+06  1.181475E+06
 1.122152E+06  1.132286E+06  1.151202E+06  1.145032E+06  1.171349E+06  1.122775E+06  1.137659E+06  1.126197E+06  1.136126E+06  1.181300E+06
 1.118759E+06  1.143652E+06  1.122888E+06  1.118087E+06  1.152841E+06  1.146826E+06  1.173062E+06  1.167331E+06  1.123202E+06  1.117170E+06
 1.126064E+06  1.125840E+06  1.120084E+06  1.160521E+06  1.137322E+06  1.118755E+06  1.129895E+06  1.116213E+06  1.136144E+06  1.117567E+06
 1.127478E+06  1.115935E+06  1.117510E+06  1.116237E+06  1.119293E+06  1.160468E+06  1.129418E+06  1.148021E+06  1.153993E+06  1.114628E+06
 1.141127E+06  1.123561E+06  1.139271E+06  1.120303E+06  1.179521E+06  1.144469E+06  1.113365E+06  1.129015E+06  1.134323E+06  1.150081E+06
 1.112167E+06  1.117707E+06  1.119949E+06  1.115906E+06  1.167702E+06  1.114324E+06  1.134547E+06  1.130673E+06  1.126652E+06  1.112987E+06
 1.110986E+06  1.114748E+06  1.110770E+06  1.120303E+06  1.139687E+06  1.110324E+06  1.115010E+06  1.122833E+06  1.117666E+06  1.110990E+06
 1.109768E+06  1.178066E+06  1.152918E+06  1.163395E+06  1.121253E+06  1.115188E+06  1.110820E+06  1.127811E+06  1.108334E+06  1.111206E+06
 1.159963E+06  1.168790E+06  1.151214E+06  1.109065E+06  1.110196E+06  1.111845E+06  1.111427E+06  1.169365E+06  1.141688E+06  1.131331E+06
 1.135988E+06  1.107453E+06  1.122250E+06  1.116701E+06  1.131710E+06  1.179385E+06  1.179469E+06  1.117865E+06  1.171923E+06  1.138458E+06
 1.132099E+06  1.154983E+06  1.112895E+06  1.113206E+06  1.123755E+06  1.105699E+06  1.109565E+06  1.122172E+06  1.126141E+06  1.114351E+06
 1.142807E+06  1.107801E+06  1.106432E+06  1.152203E+06  1.105771E+06  1.109875E+06  1.139075E+06  1.104673E+06  1.104649E+06  1.125110E+06
 1.103956E+06  1.103982E+06  1.103870E+06  1.170228E+06  1.116761E+06  1.117992E+06  1.105598E+06  1.106816E+06  1.141363E+06  1.111761E+06
 1.108948E+06  1.133805E+06  1.103999E+06  1.113490E+06  1.110007E+06  1.129623E+06  1.102941E+06  1.102675E+06  1.106722E+06  1.120264E+06
 1.103623E+06  1.104805E+06  1.108561E+06  1.130518E+06  1.111819E+06  1.103124E+06  1.117963E+06  1.105143E+06  1.123842E+06  1.103668E+06
 1.142991E+06  1.101869E+06  1.134906E+06  1.115248E+06  1.146903E+06  1.126094E+06  1.176403E+06  1.102662E+06  1.113872E+06  1.109836E+06
 1.116208E+06  1.107855E+06  1.141113E+06  1.111679E+06  1.104418E+06  1.130611E+06  1.118416E+06  1.105984E+06  1.153498E+06  1.100196E+06
 1.100948E+06  1.122013E+06  1.111638E+06  1.108092E+06  1.099911E+06  1.158607E+06  1.159284E+06  1.119146E+06  1.123601E+06  1.102340E+06
 1.132039E+06  1.135712E+06  1.103307E+06  1.098820E+06  1.109171E+06  1.098938E+06  1.098965E+06  1.098223E+06  1.099359E+06  1.149840E+06
 1.097884E+06  1.098532E+06  1.101468E+06  1.104006E+06  1.102783E+06  1.117229E+06  1.124001E+06  1.107459E+06  1.105396E+06  1.097830E+06
 1.103858E+06  1.099755E+06  1.098082E+06  1.132583E+06  1.126964E+06  1.103961E+06  1.143156E+06  1.110947E+06  1.109366E+06  1.098518E+06
 1.099849E+06  1.122371E+06  1.118149E+06  1.111714E+06  1.100162E+06  1.096701E+06  1.114738E+06  1.123984E+06  1.097454E+06  1.098006E+06
 1.098173E+06  1.112235E+06  1.100064E+06  1.162040E+06  1.108941E+06  1.103351E+06  1.104471E+06  1.107697E+06  1.104098E+06  1.096753E+06
 1.128023E+06  1.105051E+06  1.114477E+06  1.111906E+06  1.135646E+06  1.145300E+06  1.117826E+06  1.095079E+06  1.123684E+06  1.097363E+06
 1.139120E+06  1.104930E+06  1.095272E+06  1.116991E+06  1.094718E+06  1.168626E+06  1.094283E+06  1.130896E+06  1.095464E+06  1.109033E+06
 1.094387E+06  1.098504E+06  1.099961E+06  1.104645E+06  1.099131E+06  1.097405E+06  1.095012E+06  1.093566E+06  1.093485E+06  1.118234E+06
 1.129362E+06  1.132932E+06  1.113537E+06  1.099557E+06  1.096267E+06  1.093318E+06  1.123740E+06  1.117525E+06  1.096623E+06  1.109641E+06
 1.105231E+06  1.094525E+06  1.093243E+06  1.159078E+06  1.106474E+06  1.092562E+06  1.099638E+06  1.094973E+06  1.101389E+06  1.110488E+06
 1.092367E+06  1.092900E+06  1.097590E+06  1.110118E+06  1.092085E+06  1.093029E+06  1.096533E+06  1.099396E+06  1.098362E+06  1.117801E+06
 1.111503E+06  1.106417E+06  1.147839E+06  1.104655E+06  1.102791E+06  1.107070E+06  1.094661E+06  1.121171E+06  1.102673E+06  1.166094E+06
 1.092172E+06  1.093750E+06  1.117613E+06  1.091638E+06  1.091849E+06  1.093084E+06  1.092159E+06  1.090850E+06  1.098781E+06  1.094372E+06
 1.092264E+06  1.091219E+06  1.099697E+06  1.118143E+06  1.092195E+06  1.122612E+06  1.096133E+06  1.098432E+06  1.102755E+06  1.103752E+06
 1.094315E+06  1.091514E+06  1.140989E+06  1.135087E+06  1.122718E+06  1.112861E+06  1.092174E+06  1.152124E+06  1.099614E+06  1.090862E+06
 1.089542E+06  1.127788E+06  1.091136E+06  1.109952E+06  1.091415E+06  1.095742E+06  1.111817E+06  1.105398E+06  1.089546E+06  1.092315E+06
 1.146140E+06  1.089400E+06  1.110216E+06  1.091948E+06  1.161618E+06  1.098549E+06  1.092818E+06  1.105681E+06  1.093805E+06  1.099246E+06
 1.093059E+06  1.101352E+06  1.089984E+06  1.100323E+06  1.122993E+06  1.103464E+06  1.090285E+06  1.092054E+06  1.093728E+06  1.136433E+06
 1.128187E+06  1.098979E+06  1.106695E+06  1.112072E+06  1.103884E+06  1.130611E+06  1.094179E+06  1.111888E+06  1.101115E+06  1.094741E+06
 1.087960E+06  1.098855E+06  1.087836E+06  1.087956E+06  1.104829E+06  1.123068E+06  1.096034E+06  1.087496E+06  1.106104E+06  1.089849E+06
 1.102440E+06  1.101427E+06  1.101390E+06  1.087470E+06  1.089890E+06  1.087835E+06  1.087986E+06  1.087699E+06  1.088007E+06  1.112473E+06
 1.115079E+06  1.106888E+06  1.103998E+06  1.088090E+06  1.094012E+06  1.098169E+06  1.092775E+06  1.095133E+06  1.112009E+06  1.087764E+06
 1.148850E+06  1.091342E+06  1.088019E+06  1.086890E+06  1.105261E+06  1.086578E+06  1.086414E+06  1.087529E+06  1.091720E+06  1.087560E+06
 1.089488E+06  1.093905E+06  1.116717E+06  1.095234E+06  1.096114E+06  1.089822E+06  1.087782E+06  1.088902E+06  1.088290E+06  1.106439E+06
 1.089277E+06  1.087653E+06  1.158952E+06  1.107662E+06  1.093089E+06  1.086253E+06  1.089644E+06  1.092067E+06  1.112478E+06  1.098069E+06
 1.086849E+06  1.085452E+06  1.086070E+06  1.088342E+06  1.087740E+06  1.091934E+06  1.090036E+06  1.114254E+06  1.085386E+06  1.085511E+06
 1.100832E+06  1.093080E+06  1.116731E+06  1.139068E+06  1.096843E+06  1.098419E+06  1.086996E+06  1.094903E+06  1.101445E+06  1.121688E+06