# vtk DataFile Version 2.0
PFLOTRAN output
ASCII
DATASET UNSTRUCTURED_GRID
POINTS 14538 double
-0.5 -0.5 0.0
-0.5 -0.4375 0.0
-0.5 -0.375 0.0
-0.5 -0.3125 0.0
-0.5 -0.25 0.0
-0.5 -0.1875 0.0
-0.5 -0.125 0.0
-0.5 -0.0625 0.0
-0.5 0.0 0.0
-0.5 0.0625 0.0
-0.5 0.125 0.0
-0.5 0.168764909138 0.0
-0.5 0.1875 0.0
-0.5 0.25 0.0
-0.5 0.3125 0.0
-0.5 0.375 0.0
-0.5 0.4375 0.0
-0.5 0.5 0.0
-0.477546923415 0.168764909138 0.0
-0.468691402243 -0.147111886015 0.0
-0.468502647879 -0.0464749251938 0.0
-0.467871430119 -0.444927843887 0.0
-0.467306837829 0.443915637545 0.0
-0.466766872168 -0.22816040629 0.0
-0.466321357012 -0.097107568602 0.0
-0.462546415237 -0.343822921317 0.0
-0.461861734993 0.277665186807 0.0
-0.461696096263 0.0988690900341 0.0
-0.46069025101 0.339503970518 0.0
-0.458778733363 -0.282865633786 0.0
-0.457724423598 0.041503252828 0.0
-0.45637754124 0.148842316222 0.0
-0.451039800605 0.216280078601 0.0
-0.445933455135 -0.0116120733766 0.0
-0.445797596231 -0.185898106747 0.0
-0.439221630455 -0.398169638969 0.0
-0.43854954346 0.394450071923 0.0
-0.432515008277 -0.0713600862958 0.0
-0.431548542299 -0.447811306337 0.0
-0.431483677015 -0.131533837659 0.0
-0.431412501991 0.447016997306 0.0
-0.426717415785 -0.319175259756 0.0
-0.426658906043 0.5 0.0
-0.426658899523 -0.5 0.0
-0.426389715369 -0.235245165437 0.0
-0.425675747782 0.0909800133077 0.0
-0.425552855871 0.306060280331 0.0
-0.422879179617 0.14981442941 0.0
-0.417107401724 -0.361681273375 0.0
-0.416987923931 0.258605754789 0.0
-0.414162813667 0.352014766045 0.0
-0.414032761833 0.0310822347642 0.0
-0.406754274762 -0.00917958932563 0.0
-0.405578424085 -0.282115159027 0.0
-0.404162951183 0.207733654606 0.0
-0.40206950979 -0.185548972241 0.0
-0.400862010112 -0.0477521801991 0.0
-0.398351126119 -0.136007104004 0.0
-0.397066109599 -0.0942830169982 0.0
-0.394387233854 0.449920930582 0.0
-0.393768552391 -0.449361429409 0.0
-0.393571156485 0.0630889227011 0.0
-0.38938299006 0.126820285629 0.0
-0.385945180296 -0.237610871353 0.0
-0.38412566061 -0.335247685922 0.0
-0.379260480418 0.398842983277 0.0
-0.377910106184 0.303055081369 0.0
-0.377895085119 0.35168021628 0.0
-0.377688437129 -0.395397137838 0.0
-0.375463635146 0.170424280629 0.0
-0.373192893717 0.254160374932 0.0
-0.372807752789 0.0914323871899 0.0
-0.366193146389 -0.00843112973636 0.0
-0.363881172955 -0.136183641701 0.0
-0.363165167058 -0.0715654389901 0.0
-0.362955899651 -0.292859201679 0.0
-0.361844821301 0.0397890986285 0.0
-0.3587742662 -0.191218784799 0.0
-0.357453835514 0.209620800065 0.0
-0.355160270173 0.443231044882 0.0
-0.354559409382 -0.440884577306 0.0
-0.353317812085 0.5 0.0
-0.353317799047 -0.5 0.0
-0.352980180355 -0.239761495995 0.0
-0.345092871607 -0.351900249848 0.0
-0.34378555987 0.124358794835 0.0
-0.340818182444 0.352202879103 0.0
-0.339250476502 0.0710578363329 0.0
-0.337544019937 -0.0293593928188 0.0
-0.335897319443 0.247440472688 0.0
-0.334828595711 -0.110453424298 0.0
-0.334377919376 0.295626164944 0.0
-0.332949346431 0.169464377427 0.0
-0.328198165937 -0.265071370067 0.0
-0.326350339506 -0.0662889155189 0.0
-0.326340995645 -0.162731019952 0.0
-0.32357281535 0.0176863033891 0.0
-0.323456697574 -0.309505081706 0.0
-0.322280303646 0.407500439044 0.0
-0.320774493584 -0.461421777503 0.0
-0.319850890157 0.462625920196 0.0
-0.319789140581 -0.402605087778 0.0
-0.319388232609 -0.215374378649 0.0
-0.316016529609 0.213903848565 0.0
-0.314649105594 0.100066416404 0.0
-0.307633310134 0.0648391368225 0.0
-0.305100073824 -0.122017339528 0.0
-0.304945387405 0.336579072276 0.0
-0.304614522453 -0.354847915962 0.0
-0.304591498719 0.137718772468 0.0
-0.301491409246 0.262881919452 0.0
-0.300300310481 -0.0811965458231 0.0
-0.299672321629 -0.0321129354824 0.0
-0.298618063835 0.376727618934 0.0
-0.296006776103 0.180283216077 0.0
-0.293559052307 -0.185247325738 0.0
-0.293389517824 -0.265362807857 0.0
-0.28838207739 -0.451071846745 0.0
-0.288296171016 -0.313116385461 0.0
-0.287117308554 0.448163434513 0.0
-0.285113704557 0.00758482095115 0.0
-0.284224713093 -0.147283861012 0.0
-0.283872933622 0.0474581158581 0.0
-0.283112166402 0.224780750743 0.0
-0.281675333213 0.308497640351 0.0
-0.280981720818 -0.225262878933 0.0
-0.279976718128 0.5 0.0
-0.27997669857 -0.5 0.0
-0.278526479024 0.0968909399283 0.0
-0.272461793977 0.144351877825 0.0
-0.272323879978 -0.106805396664 0.0
-0.271707470987 -0.387088451808 0.0
-0.268995935411 -0.0630999428721 0.0
-0.268157773312 0.266069128619 0.0
-0.267730167376 -0.0246520976209 0.0
-0.266783110501 -0.345158666436 0.0
-0.26564886699 0.361368242179 0.0
-0.265059394589 -0.426278347557 0.0
-0.263093963614 0.191132280289 0.0
-0.260698519897 -0.197156259891 0.0
-0.259948209925 0.413683718859 0.0
-0.259937172858 -0.297425116576 0.0
-0.258816208866 -0.256000738546 0.0
-0.255937992873 -0.165382196897 0.0
-0.255436758623 0.0325920348046 0.0
-0.252165274649 0.108822655307 0.0
-0.251682652061 0.232978643848 0.0
-0.251379582775 0.0699225246904 0.0
-0.250987956553 0.466115293726 0.0
-0.250987956553 0.5 0.0
-0.250013963235 -0.5 0.0
-0.250013963235 -0.469026029567 0.0
-0.248525621563 0.299848553787 0.0
-0.247631478362 -0.0945752718276 0.0
-0.247466879936 -0.13089675523 0.0
-0.24569963721 -0.221597698846 0.0
-0.244452450162 0.00302422009918 0.0
-0.244019828661 0.170477662596 0.0
-0.240695618269 0.341138835355 0.0
-0.239489943494 -0.0365626274108 0.0
-0.239230011833 0.139226059443 0.0
-0.236294659451 -0.375866788583 0.0
-0.235261373591 0.206153726977 0.0
-0.235027897073 -0.336103749414 0.0
-0.232987626854 -0.18921537346 0.0
-0.232596420928 -0.0689412071395 0.0
-0.231655168432 0.268497674882 0.0
-0.230451002368 0.0386823595116 0.0
-0.230200612979 -0.27243272234 0.0
-0.230108518702 -0.241407263868 0.0
-0.229402255705 -0.415552558328 0.0
-0.228160694359 0.389820144905 0.0
-0.227451234568 -0.156690494863 0.0
-0.225001033379 -0.306262249946 0.0
-0.223955043867 0.0923372220812 0.0
-0.221435709357 -0.104305912971 0.0
-0.220525240327 0.455051430251 0.0
-0.220233640279 0.12193129355 0.0
-0.218928578858 -0.45408324744 0.0
-0.218907537674 -0.0145975529634 0.0
-0.218144589134 0.309724639107 0.0
-0.217747091642 0.239697926962 0.0
-0.217491919799 0.0659154643592 0.0
-0.216769508559 0.150754322779 0.0
-0.215963954597 0.180641912673 0.0
-0.214829990046 -0.13052018273 0.0
-0.213730818701 0.0155976964939 0.0
-0.213146434728 -0.21301521656 0.0
-0.212032762708 -0.0427731589247 0.0
-0.209810752928 0.208523762138 0.0
-0.209561396136 -0.179865763917 0.0
-0.206785929208 -0.334393519109 0.0
-0.20663562417 0.5 0.0
-0.206635598093 -0.5 0.0
-0.206249112336 0.372096869854 0.0
-0.206138271482 -0.085399968345 0.0
-0.206034511868 -0.290851451407 0.0
-0.20597504593 0.271685631943 0.0
-0.20471904699 -0.245268754787 0.0
-0.204005359726 -0.364349757477 0.0
-0.202642091947 0.107973263644 0.0
-0.201034766414 -0.0628642312622 0.0
-0.200786754224 -0.15258048253 0.0
-0.200293409356 0.0437951047926 0.0
-0.199374589649 -0.398481953697 0.0
-0.198667718523 0.42905062869 0.0
-0.198546509943 0.344133031091 0.0
-0.197852078206 0.160499268539 0.0
-0.197586825989 0.0855732144829 0.0
-0.196131912267 -0.00492035718237 0.0
-0.195758928157 -0.268371401269 0.0
-0.195284349542 0.132256913575 0.0
-0.195276377901 -0.0248426643351 0.0
-0.194583084261 0.22613339455 0.0
-0.19441528882 -0.107400616177 0.0
-0.194136271032 -0.316616351618 0.0
-0.193988552791 0.184628151205 0.0
-0.191783979737 0.298498430396 0.0
-0.190148824558 -0.19196853237 0.0
-0.186809783878 0.0281775668815 0.0
-0.18589040487 0.204307680907 0.0
-0.185694187727 -0.22862368768 0.0
-0.184292025336 0.0652639736928 0.0
-0.184171327552 -0.131743896692 0.0
-0.184088889198 0.327576394354 0.0
-0.183872026099 -0.0830078783622 0.0
-0.183774714244 0.247973182251 0.0
-0.183533172708 0.405550109787 0.0
-0.18334800723 0.00814238575176 0.0
-0.183267028975 -0.294322894282 0.0
-0.182689018318 -0.17022921247 0.0
-0.18240395126 -0.0404926343897 0.0
-0.182167307499 -0.437354222504 0.0
-0.181711947108 0.107171953956 0.0
-0.181417582267 0.5 0.0
-0.181417582267 0.471792991959 0.0
-0.181261886303 0.272797514488 0.0
-0.180660462175 0.149333635982 0.0
-0.180263898527 -0.251944553527 0.0
-0.179240510045 -0.348779853134 0.0
-0.177994284791 0.168845006593 0.0
-0.177630944031 -0.5 0.0
-0.177630944031 -0.474186667643 0.0
-0.176133673089 -0.20733490835 0.0
-0.17517776986 -0.06168965442 0.0
-0.17516935873 0.0880700626064 0.0
-0.175024927232 0.22289798575 0.0
-0.174335137413 -0.0156784879872 0.0
-0.173759272619 0.187607228647 0.0
-0.173463127072 0.377137403001 0.0
-0.172890301558 -0.150257937001 0.0
-0.172435608712 -0.381909253252 0.0
-0.171215833722 -0.273957333012 0.0
-0.171207335904 -0.319897526035 0.0
-0.170243612597 0.0473342152296 0.0
-0.170119663491 0.312684703991 0.0
-0.169925796981 -0.116350203456 0.0
-0.169481930423 0.135036458436 0.0
-0.169365598928 0.119506123195 0.0
-0.167149668943 -0.185980812321 0.0
-0.16678220083 0.0248825771934 0.0
-0.165868446169 -0.410685551594 0.0
-0.165777096938 -0.0976118876199 0.0
-0.164933815914 0.287522453725 0.0
-0.164547263271 -0.240597725029 0.0
-0.164541605276 0.152545804641 0.0
-0.163839250769 0.202788680671 0.0
-0.163580888763 -0.223359908442 0.0
-0.163028079417 -0.166137431305 0.0
-0.162973550741 0.35702241612 0.0
-0.16294498204 -0.0750682899339 0.0
-0.162406775099 0.00458523095436 0.0
-0.162179519046 -0.298078235478 0.0
-0.161562861498 0.0753959722916 0.0
-0.160513222955 0.102256181661 0.0
-0.159950251311 -0.133290366944 0.0
-0.159640539587 0.262931445488 0.0
-0.159044518411 0.0619432797236 0.0
-0.158773647465 -0.0321314413486 0.0
-0.158763881931 0.232309798873 0.0
-0.158666872239 -0.259446673685 0.0
-0.158304150602 -0.0514634431242 0.0
-0.157584108045 0.24747136087 0.0
-0.156855859988 0.215928214962 0.0
-0.156660925841 -0.341386355245 0.0
-0.156441399322 0.177545142164 0.0
-0.155429964351 0.165265515821 0.0
-0.153888312111 0.311136322599 0.0
-0.153408948858 -0.0123834947859 0.0
-0.153300303094 0.0363417442263 0.0
-0.153013513482 0.141709745471 0.0
-0.152210148478 0.190955981075 0.0
[...]
POINT_DATA    14538
SCALARS Liquid_Pressure      float 1
LOOKUP_TABLE default
 2.000000E+06  2.000000E+06  2.000000E+06  2.000000E+06  2.000000E+06  2.000000E+06  2.000000E+06  2.000000E+06  2.000000E+06  2.000000E+06
 2.000000E+06  2.000000E+06  2.000000E+06  2.000000E+06  2.000000E+06  2.000000E+06  2.000000E+06  2.000000E+06  1.973469E+06  1.966130E+06
 1.963229E+06  1.964637E+06  1.963391E+06  1.966001E+06  1.961279E+06  1.959508E+06  1.960123E+06  1.958581E+06  1.959529E+06  1.956554E+06
 1.952508E+06  1.952837E+06  1.946454E+06  1.938160E+06  1.941310E+06  1.933061E+06  1.933232E+06  1.920929E+06  1.922428E+06  1.923179E+06
 1.921024E+06  1.919402E+06  1.913400E+06  1.914883E+06  1.918020E+06  1.912331E+06  1.922570E+06  1.907435E+06  1.906478E+06  1.909169E+06
 1.907511E+06  1.898354E+06  1.889904E+06  1.892629E+06  1.888958E+06  1.884970E+06  1.882849E+06  1.881664E+06  1.878964E+06  1.875963E+06
 1.876799E+06  1.873465E+06  1.872013E+06  1.867205E+06  1.870137E+06  1.860155E+06  1.860256E+06  1.860487E+06  1.861252E+06  1.855802E+06
 1.852165E+06  1.848791E+06  1.837935E+06  1.834810E+06  1.839371E+06  1.843313E+06  1.834348E+06  1.830316E+06  1.831472E+06  1.831220E+06
 1.833511E+06  1.829687E+06  1.832472E+06  1.825842E+06  1.827500E+06  1.814437E+06  1.814027E+06  1.810014E+06  1.808009E+06  1.806621E+06
 1.803731E+06  1.806608E+06  1.800230E+06  1.805093E+06  1.790789E+06  1.794557E+06  1.789704E+06  1.800843E+06  1.796286E+06  1.800428E+06
 1.796603E+06  1.797549E+06  1.789085E+06  1.781932E+06  1.782413E+06  1.768846E+06  1.768278E+06  1.775828E+06  1.778143E+06  1.769051E+06
 1.771029E+06  1.761017E+06  1.758695E+06  1.771172E+06  1.757968E+06  1.759051E+06  1.759687E+06  1.765833E+06  1.756652E+06  1.762885E+06
 1.741808E+06  1.745274E+06  1.741555E+06  1.745809E+06  1.750525E+06  1.744444E+06  1.759430E+06  1.760291E+06  1.734537E+06  1.729228E+06
 1.729344E+06  1.746584E+06  1.724314E+06  1.731311E+06  1.719890E+06  1.737073E+06  1.736161E+06  1.741934E+06  1.720055E+06  1.720580E+06
 1.733672E+06  1.726188E+06  1.720727E+06  1.713451E+06  1.708002E+06  1.703933E+06  1.710054E+06  1.703591E+06  1.727994E+06  1.728524E+06
 1.728047E+06  1.727469E+06  1.712566E+06  1.699565E+06  1.702010E+06  1.703545E+06  1.692314E+06  1.697789E+06  1.709774E+06  1.687444E+06
 1.688045E+06  1.707933E+06  1.690169E+06  1.702875E+06  1.686646E+06  1.679283E+06  1.690172E+06  1.676024E+06  1.691955E+06  1.688692E+06
 1.703328E+06  1.701100E+06  1.678060E+06  1.687997E+06  1.670899E+06  1.668237E+06  1.696627E+06  1.666539E+06  1.695380E+06  1.662441E+06
 1.680257E+06  1.670758E+06  1.659965E+06  1.663173E+06  1.664955E+06  1.659612E+06  1.655246E+06  1.665252E+06  1.653022E+06  1.657777E+06
 1.657853E+06  1.670536E+06  1.682760E+06  1.683304E+06  1.678014E+06  1.648968E+06  1.667301E+06  1.660694E+06  1.658232E+06  1.672354E+06
 1.646525E+06  1.640176E+06  1.643747E+06  1.638250E+06  1.672090E+06  1.675065E+06  1.663382E+06  1.641390E+06  1.637193E+06  1.633510E+06
 1.651172E+06  1.636931E+06  1.632244E+06  1.643082E+06  1.633513E+06  1.656876E+06  1.637293E+06  1.649501E+06  1.636416E+06  1.622677E+06
 1.628839E+06  1.635629E+06  1.618916E+06  1.621689E+06  1.646591E+06  1.618089E+06  1.632882E+06  1.659127E+06  1.618051E+06  1.641148E+06
 1.624119E+06  1.616040E+06  1.658497E+06  1.616796E+06  1.658829E+06  1.659229E+06  1.631589E+06  1.620000E+06  1.631509E+06  1.645605E+06
 1.617247E+06  1.655907E+06  1.656048E+06  1.621443E+06  1.605586E+06  1.607189E+06  1.617541E+06  1.606027E+06  1.612248E+06  1.643242E+06
 1.609361E+06  1.643205E+06  1.624167E+06  1.632010E+06  1.601008E+06  1.630094E+06  1.604276E+06  1.604284E+06  1.603060E+06  1.606769E+06
 1.596246E+06  1.639964E+06  1.597068E+06  1.617493E+06  1.612524E+06  1.598703E+06  1.601491E+06  1.607827E+06  1.598289E+06  1.629836E+06
 1.591939E+06  1.590325E+06  1.617992E+06  1.591036E+06  1.590665E+06  1.591954E+06  1.606541E+06  1.586947E+06  1.586307E+06  1.600052E+06
 1.607797E+06  1.585872E+06  1.600208E+06  1.594955E+06  1.620634E+06  1.590742E+06  1.587977E+06  1.609630E+06  1.578506E+06  1.580550E+06
 1.584189E+06  1.586500E+06  1.592209E+06  1.614694E+06  1.621337E+06  1.630281E+06  1.579422E+06  1.581453E+06  1.578679E+06  1.601145E+06
 1.587779E+06  1.579344E+06  1.576861E+06  1.574278E+06  1.578505E+06  1.605888E+06  1.591709E+06  1.575162E+06  1.620581E+06  1.579190E+06
 1.595606E+06  1.580343E+06  1.570396E+06  1.597915E+06  1.568945E+06  1.566590E+06  1.620251E+06  1.595242E+06  1.577208E+06  1.575631E+06
 1.587697E+06  1.572267E+06  1.582211E+06  1.567986E+06  1.621666E+06  1.579700E+06  1.582522E+06  1.565607E+06  1.562686E+06  1.562693E+06
 1.563764E+06  1.564741E+06  1.568111E+06  1.575038E+06  1.560785E+06  1.584741E+06  1.596844E+06  1.567509E+06  1.615589E+06  1.580487E+06
 1.608780E+06  1.565809E+06  1.562057E+06  1.559663E+06  1.609501E+06  1.556718E+06  1.570325E+06  1.556418E+06  1.555223E+06  1.599112E+06
 1.561192E+06  1.556094E+06  1.552796E+06  1.560098E+06  1.572340E+06  1.613908E+06  1.613369E+06  1.581121E+06  1.557442E+06  1.582903E+06
 1.550754E+06  1.599129E+06  1.557601E+06  1.554422E+06  1.560236E+06  1.554301E+06  1.560856E+06  1.552748E+06  1.565676E+06  1.574315E+06
 1.557555E+06  1.583349E+06  1.548479E+06  1.561759E+06  1.555659E+06  1.586423E+06  1.567181E+06  1.552645E+06  1.546674E+06  1.545682E+06
 1.543483E+06  1.588916E+06  1.580807E+06  1.556358E+06  1.543718E+06  1.557183E+06  1.552216E+06  1.548331E+06  1.550620E+06  1.543004E+06
 1.543433E+06  1.545284E+06  1.550037E+06  1.593758E+06  1.545939E+06  1.557174E+06  1.543066E+06  1.560265E+06  1.574329E+06  1.542271E+06
 1.562838E+06  1.542988E+06  1.541238E+06  1.542632E+06  1.539920E+06  1.544641E+06  1.545554E+06  1.544141E+06  1.579496E+06  1.564982E+06
 1.560925E+06  1.562000E+06  1.536636E+06  1.549067E+06  1.534815E+06  1.547474E+06  1.536157E+06  1.540782E+06  1.534990E+06  1.535877E+06
 1.552866E+06  1.533776E+06  1.564835E+06  1.544181E+06  1.542757E+06  1.537987E+06  1.535550E+06  1.569214E+06  1.532478E+06  1.550196E+06
 1.547497E+06  1.542391E+06  1.534843E+06  1.535708E+06  1.530654E+06  1.543557E+06  1.535334E+06  1.531121E+06  1.529949E+06  1.537565E+06
 1.561176E+06  1.537308E+06  1.535831E+06  1.537375E+06  1.534880E+06  1.536660E+06  1.548831E+06  1.539371E+06  1.556557E+06  1.526672E+06
 1.526516E+06  1.574849E+06  1.525594E+06  1.529605E+06  1.528989E+06  1.528447E+06  1.577658E+06  1.545783E+06  1.526079E+06  1.525242E+06
 1.525455E+06  1.567193E+06  1.551244E+06  1.524308E+06  1.565970E+06  1.530917E+06  1.542779E+06  1.533978E+06  1.529737E+06  1.525159E+06
 1.541082E+06  1.525335E+06  1.525337E+06  1.523968E+06  1.545003E+06  1.537014E+06  1.533621E+06  1.546653E+06  1.530622E+06  1.520398E+06
 1.526847E+06  1.522363E+06  1.528277E+06  1.579854E+06  1.536501E+06  1.524462E+06  1.521983E+06  1.522538E+06  1.574244E+06  1.524407E+06
 1.525443E+06  1.555639E+06  1.522807E+06  1.549300E+06  1.527044E+06  1.584535E+06  1.525807E+06  1.529779E+06  1.523305E+06  1.518764E+06
 1.532269E+06  1.554988E+06  1.537005E+06  1.522224E+06  1.535397E+06  1.522944E+06  1.558599E+06  1.588628E+06  1.589195E+06  1.516124E+06
 1.584078E+06  1.517156E+06  1.528751E+06  1.528642E+06  1.539936E+06  1.515534E+06  1.514964E+06  1.515502E+06  1.524017E+06  1.514438E+06
 1.514516E+06  1.578103E+06  1.585505E+06  1.524777E+06  1.516765E+06  1.523915E+06  1.514496E+06  1.513960E+06  1.522756E+06  1.563845E+06
 1.521848E+06  1.512647E+06  1.532547E+06  1.513231E+06  1.520473E+06  1.524046E+06  1.518596E+06  1.519592E+06  1.518883E+06  1.511794E+06
 1.514822E+06  1.585718E+06  1.585560E+06  1.545418E+06  1.545009E+06  1.526840E+06  1.538746E+06  1.514518E+06  1.518445E+06  1.514678E+06
 1.512393E+06  1.539453E+06  1.531555E+06  1.526751E+06  1.531856E+06  1.522989E+06  1.516635E+06  1.515100E+06  1.515599E+06  1.518384E+06
 1.511917E+06  1.510406E+06  1.534485E+06  1.517666E+06  1.511644E+06  1.515762E+06  1.512656E+06  1.511408E+06  1.512896E+06  1.524860E+06
 1.510099E+06  1.519133E+06  1.507645E+06  1.509340E+06  1.514666E+06  1.554448E+06  1.520245E+06  1.516187E+06  1.506940E+06  1.520357E+06
 1.508754E+06  1.506996E+06  1.519455E+06  1.510326E+06  1.506259E+06  1.506278E+06  1.522054E+06  1.512886E+06  1.566593E+06  1.504687E+06
 1.509602E+06  1.546390E+06  1.555205E+06  1.505591E+06  1.512291E+06  1.507030E+06  1.540740E+06  1.576370E+06  1.503672E+06  1.509205E+06
 1.503194E+06  1.503180E+06  1.509644E+06  1.502949E+06  1.547291E+06  1.559529E+06  1.509792E+06  1.520177E+06  1.507389E+06  1.514459E+06
 1.506821E+06  1.502302E+06  1.513092E+06  1.501973E+06  1.505697E+06  1.503306E+06  1.502413E+06  1.540510E+06  1.516593E+06  1.511447E+06
 1.512678E+06  1.533168E+06  1.504951E+06  1.531763E+06  1.527233E+06  1.508493E+06  1.523531E+06  1.518876E+06  1.506097E+06  1.509876E+06
 1.501023E+06  1.522249E+06  1.509779E+06  1.505079E+06  1.502890E+06  1.504573E+06  1.506453E+06  1.500018E+06  1.502566E+06  1.500934E+06
 1.505749E+06  1.507990E+06  1.500428E+06  1.499478E+06  1.500971E+06  1.501714E+06  1.502056E+06  1.511713E+06  1.501399E+06  1.524647E+06
 1.505573E+06  1.506449E+06  1.498008E+06  1.508326E+06  1.498343E+06  1.498929E+06  1.512901E+06  1.526788E+06  1.505398E+06  1.502013E+06
 1.516870E+06  1.499569E+06  1.531312E+06  1.496350E+06  1.498250E+06  1.511321E+06  1.509058E+06  1.531528E+06  1.520030E+06  1.509314E+06
 1.497095E+06  1.561914E+06  1.515470E+06  1.507973E+06  1.499827E+06  1.503136E+06  1.499975E+06  1.499489E+06  1.501248E+06  1.506454E+06
 1.511237E+06  1.495842E+06  1.500649E+06  1.498684E+06  1.496283E+06  1.504824E+06  1.499688E+06  1.502578E+06  1.493564E+06  1.498230E+06
 1.493704E+06  1.493362E+06  1.536097E+06  1.496026E+06  1.494961E+06  1.499861E+06  1.502287E+06  1.541797E+06  1.506268E+06  1.498126E+06
 1.493735E+06  1.493237E+06  1.495424E+06  1.499369E+06  1.505573E+06  1.496649E+06  1.494975E+06  1.495448E+06  1.546558E+06  1.498972E+06
 1.490416E+06  1.495088E+06  1.521985E+06  1.488591E+06  1.504379E+06  1.499827E+06  1.529140E+06  1.489132E+06  1.492578E+06  1.490332E+06
 1.508613E+06  1.489054E+06  1.489545E+06  1.495489E+06  1.502264E+06  1.509766E+06  1.488449E+06  1.505692E+06  1.501151E+06  1.528278E+06
 1.488197E+06  1.488307E+06  1.493830E+06  1.490179E+06  1.487904E+06  1.490206E+06  1.540601E+06  1.514358E+06  1.488286E+06  1.488996E+06
 1.489498E+06  1.501413E+06  1.490986E+06  1.508082E+06  1.487399E+06  1.510869E+06  1.498683E+06  1.502508E+06  1.487548E+06  1.514732E+06
 1.490367E+06  1.488596E+06  1.495929E+06  1.497571E+06  1.503801E+06  1.496472E+06  1.488560E+06  1.488115E+06  1.490725E+06  1.495820E+06
 1.492453E+06  1.492917E+06  1.497308E+06  1.548851E+06  1.492945E+06  1.504155E+06  1.492496E+06  1.494411E+06  1.485930E+06  1.531594E+06
 1.493218E+06  1.491015E+06  1.493742E+06  1.514593E+06  1.485290E+06  1.487844E+06  1.493018E+06  1.486002E+06  1.484805E+06  1.490077E+06
 1.509400E+06  1.487771E+06  1.491475E+06  1.484838E+06  1.484858E+06  1.497259E+06  1.490403E+06  1.488901E+06  1.520282E+06  1.486500E+06
 1.488807E+06  1.501842E+06  1.483798E+06  1.486784E+06  1.499629E+06  1.486943E+06  1.487226E+06  1.505368E+06  1.487696E+06  1.517714E+06
 1.483000E+06  1.483105E+06  1.483338E+06  1.482708E+06  1.482492E+06  1.483052E+06  1.496658E+06  1.494236E+06  1.495414E+06  1.486220E+06
 1.555271E+06  1.489350E+06  1.492121E+06  1.491358E+06  1.495172E+06  1.496100E+06  1.487951E+06  1.482410E+06  1.489516E+06  1.493184E+06
 1.483504E+06  1.483182E+06  1.481410E+06  1.487098E+06  1.491475E+06  1.483394E+06  1.482236E+06  1.480613E+06  1.486097E+06  1.483311E+06
 1.528688E+06  1.482547E+06  1.541125E+06  1.488593E+06  1.498642E+06  1.482013E+06  1.491477E+06  1.510661E+06  1.479795E+06  1.502418E+06
 1.486616E+06  1.481117E+06  1.479789E+06  1.483314E+06  1.486244E+06  1.505020E+06  1.488492E+06  1.484657E+06  1.498865E+06  1.490656E+06
 1.499594E+06  1.484609E+06  1.488206E+06  1.486834E+06  1.489473E+06  1.481502E+06  1.479506E+06  1.483389E+06  1.483539E+06  1.510678E+06
 1.533638E+06  1.479962E+06  1.488521E+06  1.481235E+06  1.479130E+06  1.479044E+06  1.486427E+06  1.479933E+06  1.495015E+06  1.497114E+06
 1.478860E+06  1.479267E+06  1.479863E+06  1.485404E+06  1.504362E+06  1.478290E+06  1.545640E+06  1.478496E+06  1.481110E+06  1.479006E+06
 1.493635E+06  1.477978E+06  1.479577E+06  1.477714E+06  1.479963E+06  1.519500E+06  1.478085E+06  1.480650E+06  1.477354E+06  1.480188E+06
 1.489332E+06  1.477444E+06  1.490499E+06  1.477382E+06  1.479027E+06  1.481192E+06  1.481400E+06  1.481526E+06  1.482612E+06  1.479334E+06
 1.478683E+06  1.477068E+06  1.484346E+06  1.476580E+06  1.480965E+06  1.476624E+06  1.496645E+06  1.476457E+06  1.478940E+06  1.478397E+06
 1.490477E+06  1.478222E+06  1.555432E+06  1.498461E+06  1.492359E+06  1.476939E+06  1.487880E+06  1.484400E+06  1.487230E+06  1.489889E+06
 1.481398E+06  1.503777E+06  1.475825E+06  1.488146E+06  1.483624E+06  1.475255E+06  1.475150E+06  1.492154E+06  1.476188E+06  1.474681E+06
 1.474835E+06  1.527429E+06  1.485282E+06  1.485784E+06  1.479879E+06  1.481723E+06  1.483783E+06  1.480219E+06  1.476780E+06  1.483621E+06
 1.480864E+06  1.473902E+06  1.516434E+06  1.494047E+06  1.488826E+06  1.509409E+06  1.478882E+06  1.476538E+06  1.478234E+06  1.480088E+06
 1.481598E+06  1.477563E+06  1.483736E+06  1.477702E+06  1.552226E+06  1.475476E+06  1.474339E+06  1.481461E+06  1.473588E+06  1.484162E+06
 1.500832E+06  1.556498E+06  1.506790E+06  1.545022E+06  1.518642E+06  1.541922E+06  1.527896E+06  1.524060E+06  1.497367E+06  1.530753E+06
 1.555587E+06  1.468388E+06  1.510779E+06  1.502332E+06  1.468714E+06  1.468103E+06  1.470092E+06  1.476026E+06  1.468310E+06  1.479594E+06
 1.467150E+06  1.470955E+06  1.467047E+06  1.471110E+06  1.485455E+06  1.467508E+06  1.474732E+06  1.468394E+06  1.468406E+06  1.470487E+06
 1.468083E+06  1.514071E+06  1.474408E+06  1.475593E+06  1.478787E+06  1.482502E+06  1.468415E+06  1.471465E+06  1.483810E+06  1.467410E+06
 1.496092E+06  1.488199E+06  1.470443E+06  1.471684E+06  1.466413E+06  1.470680E+06  1.481025E+06  1.476678E+06  1.471744E+06  1.493041E+06
 1.486603E+06  1.490104E+06  1.479911E+06  1.466706E+06  1.466499E+06  1.465933E+06  1.477552E+06  1.470651E+06  1.466415E+06  1.467511E+06
 1.466757E+06  1.471491E+06  1.465659E+06  1.472916E+06  1.466224E+06  1.487734E+06  1.472046E+06  1.468171E+06  1.468504E+06  1.553002E+06
 1.469132E+06  1.471661E+06  1.465375E+06  1.471057E+06  1.478312E+06  1.491571E+06  1.467536E+06  1.474034E+06  1.470164E+06  1.475072E+06
 1.482515E+06  1.466497E+06  1.466370E+06  1.475916E+06  1.465012E+06  1.465709E+06  1.465946E+06  1.466469E+06  1.464897E+06  1.485377E+06
 1.467100E+06  1.472296E+06  1.468181E+06  1.467434E+06  1.479445E+06  1.548026E+06  1.464356E+06  1.465007E+06  1.474271E+06  1.474736E+06
 1.483510E+06  1.464933E+06  1.469059E+06  1.481443E+06  1.464282E+06  1.466237E+06  1.516212E+06  1.464098E+06  1.468522E+06  1.464365E+06
 1.502917E+06  1.497888E+06  1.464527E+06  1.467809E+06  1.468469E+06  1.478187E+06  1.467174E+06  1.480242E+06  1.483202E+06  1.472427E+06
 1.464932E+06  1.470038E+06  1.471112E+06  1.476683E+06  1.464091E+06  1.470468E+06  1.468841E+06  1.464835E+06  1.472943E+06  1.464393E+06
 1.463884E+06  1.463232E+06  1.463349E+06  1.479413E+06  1.497146E+06  1.551821E+06  1.551149E+06  1.471487E+06  1.467084E+06  1.464697E+06
 1.465486E+06  1.471254E+06  1.464696E+06  1.473013E+06  1.463712E+06  1.467785E+06  1.475274E+06  1.487214E+06  1.467060E+06  1.464051E+06
 1.462917E+06  1.487862E+06  1.492746E+06  1.463902E+06  1.470293E+06  1.464668E+06  1.472607E+06  1.471760E+06  1.469404E+06  1.523992E+06
 1.462932E+06  1.468168E+06  1.511774E+06  1.492964E+06  1.463750E+06  1.477908E+06  1.463954E+06  1.468226E+06  1.475318E+06  1.517461E+06
 1.476176E+06  1.467202E+06  1.473859E+06  1.483582E+06  1.470647E+06  1.463040E+06  1.462786E+06  1.473241E+06  1.461809E+06  1.488724E+06
 1.502728E+06  1.465640E+06  1.472783E+06  1.528049E+06  1.464045E+06  1.462198E+06  1.463270E+06  1.468193E+06  1.461595E+06  1.461395E+06
 1.464642E+06  1.461696E+06  1.484794E+06  1.473584E+06  1.479637E+06  1.461164E+06  1.476121E+06  1.488869E+06  1.461202E+06  1.463747E+06
 1.460936E+06  1.461373E+06  1.465239E+06  1.462110E+06  1.465397E+06  1.479990E+06  1.469139E+06  1.460517E+06  1.464602E+06  1.471171E+06
 1.470055E+06  1.462822E+06  1.480351E+06  1.470909E+06  1.460176E+06  1.461738E+06  1.464917E+06  1.463743E+06  1.465824E+06  1.526626E+06
 1.482234E+06  1.462761E+06  1.459775E+06  1.464155E+06  1.459854E+06  1.468258E+06  1.483738E+06  1.463383E+06  1.460577E+06  1.460206E+06
 1.467069E+06  1.461721E+06  1.459544E+06  1.477031E+06  1.459802E+06  1.460271E+06  1.465892E+06  1.460745E+06  1.461760E+06  1.459270E+06
 1.459443E+06  1.468691E+06  1.462413E+06  1.464878E+06  1.501236E+06  1.458598E+06  1.507159E+06  1.529211E+06  1.463367E+06  1.491096E+06
 1.475983E+06  1.512799E+06  1.458467E+06  1.457795E+06  1.457903E+06  1.458300E+06  1.493839E+06  1.465295E+06  1.461470E+06  1.472501E+06
 1.483169E+06  1.457650E+06  1.467138E+06  1.463585E+06  1.465672E+06  1.486598E+06  1.461948E+06  1.513235E+06  1.507142E+06  1.532701E+06
 1.478730E+06  1.494951E+06  1.469256E+06  1.473128E+06  1.462340E+06  1.472075E+06  1.458102E+06  1.461903E+06  1.463509E+06  1.455868E+06
 1.455724E+06  1.459652E+06  1.458375E+06  1.470207E+06  1.475038E+06  1.457250E+06  1.455548E+06  1.469810E+06  1.460304E+06  1.486370E+06
 1.455083E+06  1.466043E+06  1.454692E+06  1.456761E+06  1.454758E+06  1.461919E+06  1.454477E+06  1.460373E+06  1.525767E+06  1.455933E+06
 1.454287E+06  1.467057E+06  1.456023E+06  1.454944E+06  1.499293E+06  1.459102E+06  1.474917E+06  1.472379E+06  1.457236E+06  1.453817E+06
 1.462468E+06  1.454711E+06  1.454094E+06  1.455033E+06  1.457111E+06  1.463139E+06  1.456083E+06  1.466442E+06  1.467036E+06  1.453138E+06
 1.458706E+06  1.488742E+06  1.454153E+06  1.481489E+06  1.453521E+06  1.455616E+06  1.452843E+06  1.460349E+06  1.475705E+06  1.451542E+06
 1.478303E+06  1.458301E+06  1.473598E+06  1.501148E+06  1.456194E+06  1.455332E+06  1.456571E+06  1.462520E+06  1.494945E+06  1.458620E+06
 1.463831E+06  1.509300E+06  1.477234E+06  1.480782E+06  1.453536E+06  1.531283E+06  1.488998E+06  1.459973E+06  1.450263E+06  1.451999E+06
 1.483926E+06  1.450382E+06  1.451738E+06  1.460561E+06  1.515770E+06  1.452446E+06  1.468112E+06  1.450476E+06  1.449632E+06  1.449110E+06
 1.453597E+06  1.449743E+06  1.449420E+06  1.469209E+06  1.454982E+06  1.454700E+06  1.448988E+06  1.456483E+06  1.472148E+06  1.448158E+06
 1.455225E+06  1.448616E+06  1.448303E+06  1.469101E+06  1.449868E+06  1.522866E+06  1.457500E+06  1.450793E+06  1.465025E+06  1.489658E+06
 1.460502E+06  1.455971E+06  1.449780E+06  1.463383E+06  1.448711E+06  1.447822E+06  1.448051E+06  1.449542E+06  1.447011E+06  1.453606E+06
 1.464821E+06  1.450754E+06  1.499122E+06  1.447066E+06  1.460886E+06  1.456075E+06  1.449886E+06  1.502948E+06  1.453524E+06  1.530144E+06
 1.446138E+06  1.456962E+06  1.462145E+06  1.475177E+06  1.454396E+06  1.479170E+06  1.447022E+06  1.494735E+06  1.507943E+06  1.451097E+06
 1.450603E+06  1.448518E+06  1.446093E+06  1.448849E+06  1.470924E+06  1.490754E+06  1.459535E+06  1.467643E+06  1.481088E+06  1.456520E+06
 1.445073E+06  1.455776E+06  1.469897E+06  1.445997E+06  1.454352E+06  1.442870E+06  1.443284E+06  1.527061E+06  1.484036E+06  1.474883E+06
 1.513676E+06  1.472700E+06  1.442617E+06  1.461810E+06  1.448342E+06  1.478294E+06  1.527899E+06  1.527406E+06  1.446730E+06  1.441472E+06
 1.441293E+06  1.442331E+06  1.448357E+06  1.444667E+06  1.445985E+06  1.440949E+06  1.441060E+06  1.461593E+06  1.501339E+06  1.462418E+06
 1.527614E+06  1.528247E+06  1.464858E+06  1.448910E+06  1.441519E+06  1.442802E+06  1.440812E+06  1.451058E+06  1.446944E+06  1.449879E+06